# vtk DataFile Version 2.0
2D Surface
ASCII
DATASET RECTILINEAR_GRID
DIMENSIONS 201 201 1
X_COORDINATES 201 float
0
0.25
0.5
0.75
1
1.25
1.5
1.75
2
2.25
2.5
2.75
3
3.25
3.5
3.75
4
4.25
4.5
4.75
5
5.25
5.5
5.75
6
6.25
6.5
6.75
7
7.25
7.5
7.75
8
8.25
8.5
8.75
9
9.25
9.5
9.75
10
10.25
10.5
10.75
11
11.25
11.5
11.75
12
12.25
12.5
12.75
13
13.25
13.5
13.75
14
14.25
14.5
14.75
15
15.25
15.5
15.75
16
16.25
16.5
16.75
17
17.25
17.5
17.75
18
18.25
18.5
18.75
19
19.25
19.5
19.75
20
20.25
20.5
20.75
21
21.25
21.5
21.75
22
22.25
22.5
22.75
23
23.25
23.5
23.75
24
24.25
24.5
24.75
25
25.25
25.5
25.75
26
26.25
26.5
26.75
27
27.25
27.5
27.75
28
28.25
28.5
28.75
29
29.25
29.5
29.75
30
30.25
30.5
30.75
31
31.25
31.5
31.75
32
32.25
32.5
32.75
33
33.25
33.5
33.75
34
34.25
34.5
34.75
35
35.25
35.5
35.75
36
36.25
36.5
36.75
37
37.25
37.5
37.75
38
38.25
38.5
38.75
39
39.25
39.5
39.75
40
40.25
40.5
40.75
41
41.25
41.5
41.75
42
42.25
42.5
42.75
43
43.25
43.5
43.75
44
44.25
44.5
44.75
45
45.25
45.5
45.75
46
46.25
46.5
46.75
47
47.25
47.5
47.75
48
48.25
48.5
48.75
49
49.25
49.5
49.75
50
Y_COORDINATES 201 float
0
0.25
0.5
0.75
1
1.25
1.5
1.75
2
2.25
2.5
2.75
3
3.25
3.5
3.75
4
4.25
4.5
4.75
5
5.25
5.5
5.75
6
6.25
6.5
6.75
7
7.25
7.5
7.75
8
8.25
8.5
8.75
9
9.25
9.5
9.75
10
10.25
10.5
10.75
11
11.25
11.5
11.75
12
12.25
12.5
12.75
13
13.25
13.5
13.75
14
14.25
14.5
14.75
15
15.25
15.5
15.75
16
16.25
16.5
16.75
17
17.25
17.5
17.75
18
18.25
18.5
18.75
19
19.25
19.5
19.75
20
20.25
20.5
20.75
21
21.25
21.5
21.75
22
22.25
22.5
22.75
23
23.25
23.5
23.75
24
24.25
24.5
24.75
25
25.25
25.5
25.75
26
26.25
26.5
26.75
27
27.25
27.5
27.75
28
28.25
28.5
28.75
29
29.25
29.5
29.75
30
30.25
30.5
30.75
31
31.25
31.5
31.75
32
32.25
32.5
32.75
33
33.25
33.5
33.75
34
34.25
34.5
34.75
35
35.25
35.5
35.75
36
36.25
36.5
36.75
37
37.25
37.5
37.75
38
38.25
38.5
38.75
39
39.25
39.5
39.75
40
40.25
40.5
40.75
41
41.25
41.5
41.75
42
42.25
42.5
42.75
43
43.25
43.5
43.75
44
44.25
44.5
44.75
45
45.25
45.5
45.75
46
46.25
46.5
46.75
47
47.25
47.5
47.75
48
48.25
48.5
48.75
49
49.25
49.5
49.75
50
Z_COORDINATES 1 float
0
POINT_DATA 40401
SCALARS SDValues float
LOOKUP_TABLE default
31.2019 22.6737 21.7308 21.4579 21.2343 21.0221 20.8145 20.6094 20.4058 20.2036 20.0025 19.8025 19.6035 19.4056 19.2087 19.0128 18.818 18.6242 18.4315 18.2399 18.0495 17.8602 17.6721 17.4852 17.2995 17.1151 16.9321 16.7503 16.57 16.391 16.2135 16.0374 15.8629 15.6899 15.5185 15.3487 15.1806 15.0142 14.8496 14.6868 14.5258 14.3667 14.2095 14.0543 13.9012 13.7501 13.6012 13.4544 13.3099 13.1677 13.0278 12.8904 12.7554 12.6229 12.4929 12.3656 12.241 12.1191 12.0001 11.8839 11.7706 11.6603 11.553 11.4488 11.3478 11.2501 11.1555 11.0644 10.9766 10.8923 10.8114 10.7342 10.6605 10.5905 10.5242 10.4617 10.403 10.3481 10.2971 10.25 10.2069 10.1678 10.1328 10.1018 10.0748 10.052 10.0333 10.0188 10.0084 10.0021 10 10 10 10 10 10 10 10 10 10 10 10 10 10 10 10 10 10 10 10 10 10.0021 10.0083 10.0188 10.0333 10.052 10.0748 10.1018 10.1328 10.1678 10.2069 10.25 10.2971 10.3481 10.4029 10.4617 10.5242 10.5905 10.6605 10.7341 10.8114 10.8922 10.9766 11.0643 11.1555 11.25 11.3478 11.4488 11.553 11.6602 11.7705 11.8838 12 12.1191 12.241 12.3656 12.4929 12.6228 12.7553 12.8903 13.0278 13.1676 13.3098 13.4543 13.6011 13.75 13.9011 14.0542 14.2094 14.3665 14.5256 14.6866 14.8494 15.0141 15.1804 15.3485 15.5183 15.6897 15.8627 16.0372 16.2132 16.3907 16.5697 16.75 16.9317 17.1148 17.2991 17.4847 17.6716 17.8596 18.0489 18.2393 18.4308 18.6234 18.817 19.0117 19.2074 19.4042 19.6018 19.8005 20 20.2005 20.4018 20.604 20.807 21.0108 21.2155 21.4209 21.6271 21.834 22.0416 
31.064 22.5348 21.5907 21.3168 21.092 20.8788 20.67 20.4637 20.259 20.0556 19.8533 19.6521 19.4519 19.2527 19.0546 18.8574 18.6613 18.4662 18.2722 18.0793 17.8875 17.6969 17.5074 17.3192 17.1321 16.9463 16.7618 16.5787 16.3969 16.2164 16.0374 15.8599 15.6839 15.5094 15.3364 15.1651 14.9955 14.8275 14.6614 14.4969 14.3344 14.1737 14.0149 13.8581 13.7034 13.5507 13.4002 13.2518 13.1057 12.9619 12.8204 12.6813 12.5447 12.4106 12.279 12.1501 12.024 11.9005 11.7799 11.6621 11.5473 11.4355 11.3268 11.2212 11.1188 11.0196 10.9237 10.8312 10.7421 10.6565 10.5745 10.496 10.4212 10.3501 10.2828 10.2193 10.1596 10.1038 10.052 10.0042 9.9604 9.92066 9.88501 9.85348 9.82611 9.8029 9.78389 9.76909 9.7585 9.75215 9.75003 9.75003 9.75003 9.75003 9.75003 9.75003 9.75002 9.75002 9.75002 9.75002 9.75002 9.75002 9.75002 9.75002 9.75002 9.75002 9.75002 9.75002 9.75002 9.75002 9.75002 9.75214 9.75849 9.76907 9.78388 9.80289 9.82609 9.85347 9.88499 9.92064 9.96038 10.0042 10.052 10.1038 10.1596 10.2192 10.2828 10.3501 10.4212 10.496 10.5744 10.6565 10.7421 10.8312 10.9237 11.0195 11.1187 11.2211 11.3268 11.4355 11.5473 11.6621 11.7798 11.9005 12.0239 12.1501 12.279 12.4105 12.5446 12.6812 12.8203 12.9618 13.1056 13.2517 13.4001 13.5506 13.7033 13.858 14.0148 14.1736 14.3342 14.4968 14.6612 14.8274 14.9953 15.165 15.3362 15.5092 15.6836 15.8597 16.0372 16.2162 16.3966 16.5784 16.7615 16.946 17.1317 17.3187 17.507 17.6964 17.887 18.0787 18.2715 18.4654 18.6604 18.8563 19.0533 19.2513 19.4502 19.6501 19.8508 20.0525 20.255 20.4583 20.6625 20.8675 21.0732 21.2798 21.487 21.695 21.9038 
28.4031 24.9222 22.6258 21.7235 21.2538 20.9263 20.656 20.4128 20.1842 19.9642 19.7499 19.5395 19.3321 19.1271 18.924 18.7227 18.5229 18.3246 18.1277 17.9321 17.7378 17.5448 17.3531 17.1627 16.9735 16.7858 16.5993 16.4143 16.2306 16.0483 15.8675 15.6882 15.5104 15.3341 15.1594 14.9864 14.815 14.6453 14.4774 14.3112 14.1469 13.9845 13.824 13.6655 13.509 13.3546 13.2023 13.0522 12.9044 12.7588 12.6156 12.4749 12.3365 12.2007 12.0675 11.937 11.8091 11.684 11.5618 11.4424 11.326 11.2126 11.1024 10.9952 10.8913 10.7906 10.6933 10.5994 10.509 10.4221 10.3387 10.259 10.1831 10.1108 10.0424 9.97783 9.91718 9.86048 9.8078 9.75916 9.71461 9.67418 9.63792 9.60584 9.57799 9.55437 9.53502 9.51995 9.50917 9.50269 9.50053 9.50052 9.50051 9.50049 9.50048 9.50047 9.50046 9.50045 9.50044 9.50044 9.50043 9.50042 9.50041 9.5004 9.50039 9.50039 9.50038 9.50037 9.50037 9.50036 9.50035 9.5025 9.50896 9.51972 9.53477 9.5541 9.5777 9.60553 9.63759 9.67383 9.71424 9.75876 9.80738 9.86004 9.91671 9.97734 10.0419 10.1103 10.1825 10.2585 10.3381 10.4214 10.5083 10.5987 10.6926 10.7899 10.8905 10.9944 11.1015 11.2117 11.325 11.4414 11.5607 11.6829 11.8079 11.9357 12.0662 12.1994 12.3351 12.4734 12.6141 12.7572 12.9027 13.0505 13.2005 13.3526 13.5069 13.6633 13.8217 13.9821 14.1444 14.3085 14.4745 14.6423 14.8118 14.983 15.1558 15.3302 15.5062 15.6838 15.8628 16.0433 16.2251 16.4084 16.593 16.7789 16.966 17.1544 17.344 17.5348 17.7268 17.9198 18.114 18.3092 18.5054 18.7027 18.901 19.1002 19.3003 19.5014 19.7034 19.9062 20.1099 20.3144 20.5197 20.7258 20.9327 21.1404 21.3487 21.5578 21.7676 
27.593 25.462 23.5454 22.357 21.6334 21.1439 20.7718 20.4624 20.1887 19.9369 19.6992 19.471 19.2498 19.0337 18.8215 18.6126 18.4064 18.2025 18.0007 17.8008 17.6025 17.406 17.211 17.0175 16.8255 16.6351 16.446 16.2585 16.0724 15.8879 15.7049 15.5233 15.3434 15.1651 14.9883 14.8133 14.6399 14.4682 14.2983 14.1302 13.964 13.7997 13.6373 13.4769 13.3185 13.1623 13.0081 12.8562 12.7065 12.5591 12.4141 12.2715 12.1314 11.9938 11.8588 11.7264 11.5968 11.47 11.346 11.225 11.1069 10.9919 10.88 10.7712 10.6657 10.5635 10.4647 10.3694 10.2775 10.1892 10.1045 10.0235 9.94623 9.87279 9.80321 9.73755 9.67585 9.61818 9.56457 9.51507 9.46973 9.42858 9.39166 9.359 9.33063 9.30657 9.28685 9.27149 9.2605 9.25388 9.25165 9.25162 9.25158 9.25155 9.25151 9.25148 9.25145 9.25142 9.25139 9.25136 9.25134 9.25131 9.25128 9.25126 9.25124 9.25121 9.25119 9.25117 9.25115 9.25112 9.2511 9.25328 9.25983 9.27077 9.28607 9.30573 9.32972 9.35803 9.39062 9.42748 9.46856 9.51384 9.56326 9.6168 9.6744 9.73602 9.8016 9.8711 9.94446 10.0216 10.1025 10.1871 10.2753 10.3671 10.4624 10.5611 10.6632 10.7686 10.8772 10.989 11.1039 11.2218 11.3427 11.4665 11.5932 11.7226 11.8548 11.9896 12.127 12.2669 12.4093 12.5541 12.7012 12.8506 13.0023 13.1561 13.3121 13.4701 13.6301 13.7921 13.9561 14.1218 14.2894 14.4588 14.6299 14.8026 14.977 15.153 15.3306 15.5096 15.6901 15.8721 16.0554 16.2401 16.4262 16.6135 16.8021 16.9919 17.1829 17.3751 17.5684 17.7628 17.9582 18.1548 18.3523 18.5509 18.7504 18.9509 19.1522 19.3545 19.5577 19.7617 19.9666 20.1723 20.3787 20.586 20.794 21.0027 21.2122 21.4224 21.6333 
27.1756 25.6125 24.0654 22.8857 22.0432 21.4311 20.9618 20.58 20.2528 19.9609 19.6927 19.4408 19.2008 18.9695 18.7449 18.5256 18.3105 18.099 17.8906 17.6848 17.4814 17.2801 17.0809 16.8835 16.6879 16.494 16.3018 16.1113 15.9223 15.7351 15.5494 15.3653 15.1829 15.0022 14.8231 14.6458 14.4702 14.2963 14.1243 13.9541 13.7857 13.6193 13.4549 13.2924 13.132 12.9737 12.8176 12.6637 12.512 12.3627 12.2157 12.0712 11.9292 11.7897 11.6528 11.5186 11.3872 11.2585 11.1327 11.0099 10.8901 10.7733 10.6597 10.5492 10.4421 10.3383 10.2379 10.141 10.0476 9.95781 9.8717 9.78934 9.71077 9.63605 9.56526 9.49844 9.43565 9.37693 9.32235 9.27195 9.22577 9.18385 9.14623 9.11295 9.08403 9.05951 9.03939 9.02371 9.01248 9.00571 9.0034 9.00332 9.00325 9.00318 9.00311 9.00305 9.00299 9.00292 9.00286 9.00281 9.00275 9.0027 9.00264 9.00259 9.00254 9.00249 9.00245 9.0024 9.00236 9.00231 9.00227 9.00446 9.01112 9.02223 9.03778 9.05777 9.08217 9.11096 9.14411 9.18159 9.22337 9.26941 9.31967 9.3741 9.43266 9.49529 9.56195 9.63258 9.70712 9.78551 9.86769 9.95361 10.0432 10.1364 10.2331 10.3333 10.4368 10.5437 10.6539 10.7673 10.8838 11.0033 11.1259 11.2513 11.3797 11.5108 11.6446 11.7811 11.9202 12.0618 12.2059 12.3524 12.5012 12.6523 12.8056 12.9612 13.1188 13.2785 13.4402 13.6038 13.7694 13.9368 14.106 14.277 14.4497 14.624 14.8 14.9775 15.1566 15.3372 15.5192 15.7027 15.8875 16.0737 16.2612 16.45 16.64 16.8312 17.0236 17.2171 17.4118 17.6075 17.8043 18.0022 18.201 18.4009 18.6016 18.8034 19.006 19.2095 19.4139 19.6191 19.8251 20.032 20.2396 20.448 20.6571 20.8669 21.0775 21.2888 21.5007 
26.8892 25.6354 24.3458 23.2565 22.3918 21.715 21.1757 20.732 20.3538 20.0208 19.7196 19.4412 19.1795 18.9303 18.6909 18.459 18.2333 18.0126 17.7961 17.5832 17.3735 17.1666 16.9622 16.7601 16.5602 16.3623 16.1664 15.9723 15.7801 15.5897 15.401 15.2141 15.0289 14.8455 14.6638 14.4839 14.3059 14.1296 13.9552 13.7826 13.612 13.4434 13.2767 13.1121 12.9495 12.7891 12.6308 12.4748 12.3211 12.1696 12.0206 11.8741 11.73 11.5885 11.4497 11.3135 11.1801 11.0496 10.9219 10.7972 10.6755 10.5569 10.4415 10.3293 10.2204 10.1149 10.0128 9.91429 9.81933 9.72802 9.64043 9.55662 9.47667 9.40062 9.32855 9.26051 9.19656 9.13676 9.08116 9.0298 8.98273 8.94 8.90165 8.8677 8.8382 8.81317 8.79263 8.77661 8.76512 8.75817 8.75577 8.75564 8.75552 8.7554 8.75528 8.75517 8.75507 8.75496 8.75486 8.75476 8.75467 8.75457 8.75449 8.7544 8.75431 8.75423 8.75415 8.75407 8.754 8.75393 8.75385 8.75606 8.76281 8.77409 8.7899 8.81023 8.83504 8.86432 8.89804 8.93617 8.97866 9.02549 9.0766 9.13195 9.19149 9.25517 9.32294 9.39473 9.47048 9.55014 9.63363 9.7209 9.81188 9.90649 10.0047 10.1064 10.2115 10.32 10.4317 10.5467 10.6648 10.786 10.9102 11.0374 11.1674 11.3002 11.4358 11.574 11.7148 11.8581 12.0039 12.1521 12.3027 12.4555 12.6106 12.7678 12.9271 13.0885 13.2519 13.4172 13.5844 13.7535 13.9243 14.0969 14.2712 14.4471 14.6247 14.8038 14.9845 15.1666 15.3501 15.5351 15.7214 15.9091 16.098 16.2883 16.4797 16.6723 16.8661 17.061 17.2571 17.4541 17.6523 17.8514 18.0516 18.2527 18.4548 18.6577 18.8616 19.0663 19.2719 19.4783 19.6855 19.8935 20.1023 20.3118 20.522 20.733 20.9446 21.157 21.3699 
26.6623 25.6022 24.4924 23.5011 22.6593 21.9605 21.3805 20.8919 20.4717 20.1017 19.7689 19.4638 19.1796 18.9115 18.6559 18.4102 18.1725 17.9414 17.7158 17.4949 17.2779 17.0645 16.8543 16.6468 16.442 16.2396 16.0394 15.8414 15.6455 15.4515 15.2595 15.0694 14.8811 14.6948 14.5103 14.3276 14.1468 13.968 13.791 13.616 13.4429 13.2718 13.1028 12.9358 12.7709 12.6082 12.4477 12.2895 12.1335 11.9799 11.8288 11.6801 11.5339 11.3903 11.2494 11.1112 10.9757 10.8432 10.7135 10.5868 10.4632 10.3427 10.2254 10.1114 10.0007 9.8934 9.7896 9.68936 9.59274 9.49983 9.41068 9.32536 9.24395 9.16651 9.09309 9.02378 8.95862 8.89767 8.84098 8.78862 8.74062 8.69703 8.6579 8.62325 8.59313 8.56756 8.54658 8.53019 8.51841 8.51127 8.50875 8.50856 8.50838 8.5082 8.50802 8.50785 8.50769 8.50753 8.50738 8.50723 8.50709 8.50695 8.50681 8.50668 8.50655 8.50642 8.5063 8.50619 8.50607 8.50596 8.50585 8.50806 8.5149 8.52636 8.54243 8.5631 8.58834 8.61812 8.65243 8.69121 8.73444 8.78208 8.83407 8.89037 8.95093 9.01568 9.08458 9.15757 9.23457 9.31552 9.40037 9.48903 9.58144 9.67753 9.77723 9.88046 9.98715 10.0972 10.2106 10.3273 10.4471 10.5699 10.6959 10.8247 10.9565 11.091 11.2283 11.3682 11.5108 11.6559 11.8034 11.9534 12.1057 12.2603 12.4171 12.576 12.7371 12.9001 13.0652 13.2322 13.4011 13.5719 13.7444 13.9186 14.0945 14.2721 14.4512 14.6319 14.8141 14.9978 15.1829 15.3694 15.5572 15.7463 15.9368 16.1284 16.3213 16.5153 16.7105 16.9068 17.1042 17.3027 17.5021 17.7026 17.9041 18.1064 18.3098 18.514 18.7191 18.925 19.1318 19.3394 19.5478 19.7569 19.9669 20.1775 20.3888 20.6009 20.8136 21.027 21.241 
26.4678 25.5402 24.5605 23.6559 22.8534 22.1578 21.5595 21.0427 20.5914 20.1912 19.8306 19.5008 19.195 18.908 18.6359 18.3759 18.1256 17.8834 17.648 17.4183 17.1935 16.973 16.7564 16.543 16.3328 16.1254 15.9206 15.7182 15.5182 15.3204 15.1247 14.9311 14.7395 14.5499 14.3623 14.1767 13.9931 13.8114 13.6317 13.454 13.2783 13.1046 12.9331 12.7636 12.5963 12.4312 12.2683 12.1077 11.9495 11.7936 11.6402 11.4892 11.3408 11.195 11.0519 10.9116 10.774 10.6393 10.5076 10.3789 10.2532 10.1307 10.0115 9.89552 9.78294 9.6738 9.56819 9.46618 9.36784 9.27324 9.18246 9.09556 9.01263 8.93372 8.8589 8.78825 8.72181 8.65965 8.60184 8.54841 8.49943 8.45494 8.41498 8.3796 8.34882 8.32269 8.30122 8.28443 8.27236 8.26499 8.26236 8.26208 8.26182 8.26157 8.26132 8.26109 8.26086 8.26063 8.26042 8.26021 8.26 8.2598 8.25961 8.25943 8.25925 8.25907 8.2589 8.25873 8.25857 8.25842 8.25826 8.26047 8.2674 8.27904 8.29537 8.31639 8.34206 8.37237 8.40727 8.44674 8.49073 8.53919 8.59209 8.64937 8.71097 8.77683 8.8469 8.92111 8.9994 9.08169 9.16792 9.25801 9.3519 9.4495 9.55075 9.65557 9.76387 9.87559 9.99065 10.109 10.2305 10.3551 10.4828 10.6134 10.7469 10.8832 11.0223 11.164 11.3083 11.4552 11.6045 11.7562 11.9103 12.0666 12.2252 12.3859 12.5487 12.7135 12.8803 13.049 13.2196 13.392 13.5662 13.7421 13.9196 14.0988 14.2796 14.4619 14.6456 14.8309 15.0175 15.2055 15.3949 15.5855 15.7774 15.9705 16.1648 16.3603 16.5569 16.7545 16.9533 17.1531 17.3539 17.5557 17.7584 17.9621 18.1667 18.3722 18.5785 18.7857 18.9936 19.2024 19.412 19.6223 19.8333 20.0451 20.2575 20.4707 20.6845 20.8989 21.114 
26.2932 25.4618 24.5797 23.7481 22.9883 22.3086 21.707 21.1753 20.7032 20.2801 19.8968 19.5456 19.2201 18.9153 18.6273 18.353 18.0901 17.8365 17.591 17.3521 17.1191 16.8911 16.6675 16.448 16.2319 16.0191 15.8093 15.6023 15.3979 15.1959 14.9963 14.799 14.6038 14.4108 14.2199 14.0312 13.8444 13.6598 13.4771 13.2966 13.1182 12.9418 12.7676 12.5955 12.4257 12.258 12.0927 11.9296 11.7689 11.6106 11.4548 11.3015 11.1508 11.0028 10.8574 10.7148 10.575 10.4381 10.3042 10.1734 10.0456 9.92104 9.79974 9.68177 9.56721 9.45614 9.34863 9.24477 9.14462 9.04827 8.95578 8.86724 8.78271 8.70227 8.62598 8.55392 8.48615 8.42273 8.36373 8.30919 8.25918 8.21373 8.17291 8.13674 8.10527 8.07853 8.05655 8.03935 8.02694 8.01935 8.01657 8.01621 8.01585 8.01551 8.01519 8.01487 8.01456 8.01426 8.01397 8.01369 8.01342 8.01315 8.01289 8.01264 8.0124 8.01217 8.01194 8.01172 8.0115 8.01129 8.01108 8.01329 8.0203 8.03212 8.04872 8.0701 8.09622 8.12706 8.16258 8.20274 8.24751 8.29684 8.35067 8.40895 8.47163 8.53864 8.60991 8.68539 8.765 8.84867 8.93632 9.02789 9.12329 9.22245 9.32529 9.43173 9.54169 9.65509 9.77186 9.89191 10.0152 10.1416 10.271 10.4034 10.5387 10.6768 10.8177 10.9612 11.1074 11.256 11.4072 11.5607 11.7166 11.8747 12.035 12.1975 12.3621 12.5286 12.6972 12.8676 13.0399 13.214 13.3899 13.5674 13.7466 13.9275 14.1098 14.2937 14.4791 14.6659 14.8541 15.0436 15.2345 15.4266 15.62 15.8145 16.0103 16.2072 16.4052 16.6042 16.8044 17.0055 17.2076 17.4107 17.6148 17.8198 18.0256 18.2323 18.4399 18.6482 18.8574 19.0674 19.2781 19.4896 19.7017 19.9146 20.1282 20.3424 20.5573 20.7728 20.9889 
26.1321 25.3735 24.5671 23.7961 23.0771 22.419 21.8231 21.2861 20.8016 20.3625 19.9617 19.5927 19.2501 18.9292 18.6265 18.3387 18.0634 17.7987 17.5429 17.2948 17.0533 16.8176 16.5869 16.3608 16.1387 15.9203 15.7052 15.4933 15.2842 15.0778 14.8741 14.6728 14.4739 14.2773 14.0829 13.8908 13.7008 13.513 13.3273 13.1438 12.9624 12.7833 12.6063 12.4315 12.2589 12.0886 11.9207 11.755 11.5918 11.431 11.2728 11.117 10.9639 10.8134 10.6657 10.5208 10.3787 10.2395 10.1034 9.97028 9.84034 9.71361 9.59018 9.47012 9.35351 9.24043 9.13095 9.02515 8.92313 8.82494 8.73067 8.64041 8.55422 8.47217 8.39435 8.32082 8.25165 8.18691 8.12665 8.07095 8.01985 7.97341 7.93167 7.89468 7.86248 7.8351 7.81258 7.79493 7.78217 7.77432 7.77139 7.77092 7.77047 7.77003 7.76961 7.76919 7.7688 7.76841 7.76804 7.76767 7.76732 7.76698 7.76665 7.76633 7.76602 7.76571 7.76542 7.76513 7.76485 7.76458 7.76432 7.76651 7.77361 7.7856 7.80248 7.82422 7.8508 7.88219 7.91835 7.95924 8.00481 8.05503 8.10982 8.16914 8.23293 8.30112 8.37364 8.45042 8.53139 8.61647 8.70559 8.79867 8.89563 8.99639 9.10086 9.20897 9.32063 9.43576 9.55428 9.6761 9.80115 9.92933 10.0606 10.1948 10.3319 10.4719 10.6146 10.76 10.908 11.0585 11.2115 11.3668 11.5245 11.6845 11.8466 12.0109 12.1772 12.3456 12.5159 12.6881 12.8621 13.0379 13.2155 13.3947 13.5756 13.758 13.942 14.1275 14.3145 14.5029 14.6926 14.8837 15.076 15.2697 15.4645 15.6606 15.8577 16.0561 16.2555 16.4559 16.6574 16.8599 17.0634 17.2678 17.4731 17.6794 17.8865 18.0944 18.3032 18.5128 18.7232 18.9343 19.1462 19.3588 19.5721 19.7861 20.0008 20.2161 20.432 20.6486 20.8657 
25.9807 25.2792 24.5329 23.8124 23.1306 22.4957 21.9107 21.3747 20.8844 20.4349 20.0212 19.6383 19.2814 18.9466 18.6305 18.3302 18.0433 17.7678 17.5021 17.2449 16.9949 16.7514 16.5136 16.2807 16.0524 15.8282 15.6077 15.3906 15.1767 14.9658 14.7577 14.5523 14.3494 14.149 13.951 13.7554 13.562 13.3709 13.1821 12.9955 12.8111 12.6289 12.449 12.2714 12.096 11.923 11.7523 11.584 11.4182 11.2548 11.094 10.9357 10.7801 10.6271 10.4769 10.3296 10.1851 10.0436 9.90507 9.76968 9.63746 9.50849 9.38285 9.26061 9.14186 9.02668 8.91515 8.80735 8.70336 8.60327 8.50715 8.41508 8.32715 8.24344 8.16401 8.08894 8.01831 7.95218 7.89062 7.83369 7.78146 7.73396 7.69127 7.65341 7.62044 7.59239 7.56929 7.55116 7.53803 7.52991 7.52681 7.52622 7.52566 7.52511 7.52458 7.52406 7.52357 7.52308 7.52261 7.52216 7.52172 7.52129 7.52088 7.52047 7.52008 7.5197 7.51933 7.51897 7.51862 7.51828 7.51795 7.52013 7.52731 7.53949 7.55665 7.57877 7.60582 7.63777 7.67459 7.71623 7.76263 7.81376 7.86956 7.92995 7.99488 8.06429 8.13809 8.21621 8.29859 8.38513 8.47577 8.5704 8.66897 8.77137 8.87752 8.98734 9.10075 9.21765 9.33795 9.46159 9.58846 9.71849 9.85159 9.98769 10.1267 10.2685 10.4131 10.5604 10.7102 10.8626 11.0175 11.1747 11.3342 11.496 11.66 11.8261 11.9942 12.1643 12.3364 12.5104 12.6862 12.8637 13.043 13.2239 13.4064 13.5906 13.7762 13.9633 14.1519 14.3418 14.5331 14.7258 14.9196 15.1148 15.3111 15.5086 15.7073 15.907 16.1078 16.3097 16.5125 16.7164 16.9212 17.1269 17.3335 17.541 17.7494 17.9586 18.1686 18.3794 18.591 18.8033 19.0163 19.23 19.4445 19.6596 19.8753 20.0917 20.3087 20.5263 20.7445 
25.8368 25.1811 24.4836 23.8054 23.1569 22.545 21.9733 21.4425 20.9509 20.4957 20.0732 19.6796 19.3112 18.9647 18.637 18.3255 18.0279 17.7423 17.4671 17.201 16.9428 16.6916 16.4465 16.207 15.9724 15.7422 15.5162 15.2939 15.075 14.8594 14.6469 14.4372 14.2302 14.0259 13.8242 13.6249 13.428 13.2335 13.0413 12.8515 12.664 12.4787 12.2958 12.1152 11.937 11.7611 11.5876 11.4166 11.248 11.0819 10.9184 10.7575 10.5993 10.4438 10.2911 10.1412 9.99424 9.85026 9.70935 9.57156 9.43698 9.30568 9.17774 9.05325 8.93228 8.81493 8.70126 8.59137 8.48535 8.38327 8.28522 8.19128 8.10154 8.01608 7.93497 7.8583 7.78614 7.71856 7.65564 7.59743 7.54399 7.4954 7.4517 7.41293 7.37915 7.35039 7.32668 7.30805 7.29452 7.28611 7.28282 7.28211 7.28142 7.28075 7.2801 7.27947 7.27886 7.27827 7.2777 7.27714 7.2766 7.27608 7.27557 7.27508 7.2746 7.27413 7.27368 7.27324 7.27282 7.2724 7.27199 7.27415 7.28142 7.29378 7.31123 7.33374 7.36128 7.39381 7.43131 7.47372 7.52099 7.57306 7.62988 7.69139 7.75751 7.82817 7.90329 7.98281 8.06663 8.15468 8.24687 8.34312 8.44333 8.54742 8.6553 8.76688 8.88207 9.00079 9.12293 9.24842 9.37717 9.50908 9.64408 9.78207 9.92299 10.0667 10.2132 10.3624 10.5142 10.6685 10.8252 10.9843 11.1457 11.3094 11.4752 11.6431 11.8131 11.985 12.1589 12.3346 12.5122 12.6915 12.8725 13.0551 13.2393 13.4251 13.6124 13.8012 13.9913 14.1829 14.3757 14.5699 14.7653 14.962 15.1598 15.3588 15.5588 15.76 15.9622 16.1655 16.3697 16.5749 16.781 16.9881 17.196 17.4048 17.6144 17.8248 18.036 18.248 18.4608 18.6743 18.8884 19.1033 19.3188 19.535 19.7519 19.9693 20.1874 20.406 20.6253 
25.699 25.0807 24.4236 23.7813 23.1621 22.5721 22.0147 21.4914 21.0018 20.5442 20.1162 19.715 19.3377 18.9816 18.644 18.3226 18.0153 17.7205 17.4364 17.1619 16.8958 16.6371 16.385 16.1388 15.8979 15.6618 15.4302 15.2026 14.9787 14.7583 14.5412 14.3272 14.116 13.9077 13.7021 13.4991 13.2986 13.1005 12.905 12.7118 12.521 12.3326 12.1466 11.963 11.7817 11.6029 11.4265 11.2526 11.0812 10.9124 10.7461 10.5825 10.4216 10.2635 10.1081 9.95566 9.80614 9.65963 9.51621 9.37594 9.23892 9.10521 8.9749 8.84807 8.7248 8.60518 8.4893 8.37725 8.2691 8.16496 8.0649 7.96901 7.87739 7.79011 7.70725 7.62891 7.55515 7.48606 7.4217 7.36215 7.30747 7.25772 7.21296 7.17324 7.13861 7.1091 7.08475 7.06559 7.05164 7.04291 7.03943 7.03857 7.03774 7.03694 7.03616 7.0354 7.03467 7.03397 7.03328 7.03261 7.03197 7.03134 7.03073 7.03014 7.02956 7.02901 7.02846 7.02794 7.02742 7.02692 7.02644 7.02857 7.03592 7.04847 7.06621 7.08912 7.11717 7.15031 7.18851 7.23171 7.27987 7.33293 7.39082 7.45347 7.52082 7.59278 7.66927 7.75022 7.83554 7.92515 8.01894 8.11684 8.21875 8.32458 8.43424 8.54763 8.66465 8.78523 8.90926 9.03665 9.16731 9.30115 9.43808 9.57802 9.72088 9.86658 10.015 10.1661 10.3198 10.4761 10.6347 10.7958 10.9591 11.1246 11.2923 11.4621 11.6339 11.8077 11.9834 12.1609 12.3402 12.5213 12.704 12.8884 13.0743 13.2618 13.4507 13.6411 13.8329 14.026 14.2205 14.4162 14.6131 14.8113 15.0106 15.211 15.4125 15.6151 15.8188 16.0234 16.229 16.4355 16.643 16.8513 17.0605 17.2706 17.4815 17.6931 17.9056 18.1188 18.3327 18.5473 18.7626 18.9786 19.1953 19.4126 19.6305 19.849 20.0681 20.2878 20.508 
25.5661 24.9792 24.3558 23.7442 23.1509 22.5812 22.0382 21.5238 21.0383 20.5808 20.15 19.7436 19.3597 18.9958 18.65 18.3201 18.0043 17.701 17.4089 17.1265 16.8528 16.5869 16.328 16.0753 15.8283 15.5864 15.3492 15.1163 14.8874 14.6622 14.4404 14.222 14.0066 13.7942 13.5846 13.3777 13.1735 12.9719 12.7729 12.5763 12.3822 12.1905 12.0013 11.8145 11.6302 11.4484 11.269 11.0922 10.9179 10.7462 10.5771 10.4107 10.247 10.0862 9.92811 9.77297 9.62081 9.47168 9.32567 9.18285 9.0433 8.9071 8.77433 8.64508 8.51943 8.39747 8.2793 8.16499 8.05465 7.94836 7.84621 7.7483 7.65471 7.56553 7.48086 7.40077 7.32534 7.25467 7.18882 7.12786 7.07188 7.02092 6.97505 6.93433 6.8988 6.86851 6.84348 6.82376 6.80937 6.80031 6.79661 6.7956 6.79462 6.79367 6.79276 6.79187 6.791 6.79017 6.78936 6.78857 6.78781 6.78707 6.78635 6.78565 6.78497 6.78431 6.78367 6.78305 6.78244 6.78185 6.78128 6.78338 6.79081 6.80356 6.82161 6.84493 6.8735 6.90726 6.94619 6.99023 7.03931 7.09339 7.15238 7.21622 7.28483 7.35814 7.43605 7.51849 7.60535 7.69656 7.79201 7.89162 7.99528 8.1029 8.21438 8.32962 8.44854 8.57102 8.69698 8.82632 8.95894 9.09475 9.23367 9.37559 9.52043 9.66811 9.81854 9.97164 10.1273 10.2855 10.4461 10.6091 10.7743 10.9418 11.1114 11.2831 11.4568 11.6324 11.8099 11.9892 12.1703 12.3532 12.5376 12.7237 12.9114 13.1005 13.2911 13.4832 13.6766 13.8713 14.0673 14.2646 14.4631 14.6627 14.8635 15.0654 15.2684 15.4724 15.6775 15.8835 16.0904 16.2983 16.5071 16.7167 16.9272 17.1386 17.3507 17.5636 17.7772 17.9916 18.2067 18.4225 18.6389 18.856 19.0738 19.2922 19.5111 19.7307 19.9509 20.1716 20.3928 
25.4376 24.8771 24.2825 23.6973 23.1269 22.5757 22.0468 21.5419 21.0618 20.6063 20.1745 19.765 19.3763 19.0065 18.6539 18.3168 17.9937 17.683 17.3834 17.0938 16.8131 16.5404 16.275 16.016 15.763 15.5154 15.2727 15.0345 14.8006 14.5706 14.3442 14.1213 13.9016 13.6851 13.4715 13.2607 13.0528 12.8475 12.6449 12.4448 12.2473 12.0523 11.8599 11.6699 11.4824 11.2975 11.1151 10.9352 10.758 10.5833 10.4113 10.2421 10.0756 9.91186 9.75104 9.59315 9.43825 9.28643 9.13776 8.9923 8.85014 8.71137 8.57606 8.44431 8.3162 8.19182 8.07127 7.95463 7.84201 7.73349 7.62917 7.52915 7.43353 7.34238 7.2558 7.17389 7.09673 7.02441 6.957 6.89458 6.83722 6.785 6.73797 6.6962 6.65973 6.62861 6.60288 6.58257 6.56771 6.5583 6.55437 6.55319 6.55205 6.55095 6.54988 6.54885 6.54784 6.54687 6.54593 6.54501 6.54412 6.54326 6.54242 6.54161 6.54082 6.54005 6.5393 6.53857 6.53787 6.53718 6.53651 6.53858 6.54609 6.55904 6.5774 6.60116 6.63027 6.66469 6.70437 6.74927 6.79931 6.85444 6.91458 6.97965 7.04958 7.12428 7.20366 7.28763 7.37609 7.46896 7.56612 7.66748 7.77295 7.88241 7.99577 8.11293 8.23378 8.35822 8.48616 8.61749 8.75212 8.88995 9.03088 9.17483 9.3217 9.47141 9.62386 9.77896 9.93665 10.0968 10.2594 10.4244 10.5916 10.761 10.9325 11.1061 11.2817 11.4592 11.6385 11.8197 12.0026 12.1872 12.3734 12.5613 12.7506 12.9415 13.1337 13.3274 13.5225 13.7188 13.9164 14.1152 14.3152 14.5164 14.7187 14.9221 15.1265 15.3319 15.5384 15.7457 15.9541 16.1633 16.3734 16.5843 16.7961 17.0087 17.222 17.4362 17.651 17.8666 18.0828 18.2998 18.5173 18.7356 18.9544 19.1739 19.3939 19.6145 19.8357 20.0574 20.2796 
25.313 24.7751 24.2052 23.6429 23.0928 22.5586 22.0429 21.5477 21.0738 20.6215 20.1903 19.7793 19.3874 19.0131 18.6552 18.3121 17.9826 17.6653 17.3591 17.0629 16.7757 16.4967 16.2251 15.9602 15.7014 15.4482 15.2002 14.9569 14.718 14.4832 14.2522 14.0248 13.8009 13.5801 13.3625 13.1479 12.9361 12.7271 12.5209 12.3173 12.1163 11.918 11.7222 11.5289 11.3383 11.1502 10.9646 10.7817 10.6014 10.4237 10.2488 10.0766 9.90717 9.74059 9.57691 9.41619 9.2585 9.10391 8.95249 8.80432 8.65948 8.51805 8.38012 8.24579 8.11513 7.98825 7.86523 7.74618 7.6312 7.52037 7.41381 7.3116 7.21385 7.12065 7.0321 6.9483 6.86933 6.79528 6.72624 6.66229 6.6035 6.54996 6.50172 6.45884 6.42139 6.38941 6.36293 6.342 6.32664 6.31687 6.31269 6.31134 6.31003 6.30876 6.30753 6.30634 6.30519 6.30407 6.30298 6.30192 6.3009 6.29991 6.29894 6.29801 6.2971 6.29621 6.29535 6.29451 6.2937 6.29291 6.29214 6.29416 6.30176 6.31492 6.33361 6.35781 6.38748 6.42258 6.46305 6.50884 6.55988 6.6161 6.67743 6.74379 6.81508 6.89123 6.97212 7.05768 7.1478 7.24237 7.3413 7.44448 7.55181 7.66317 7.77846 7.89758 8.02042 8.14688 8.27684 8.41022 8.5469 8.68679 8.82979 8.97581 9.12475 9.27651 9.43102 9.58818 9.7479 9.91011 10.0747 10.2417 10.4109 10.5822 10.7557 10.9312 11.1087 11.2881 11.4693 11.6523 11.837 12.0234 12.2114 12.401 12.5921 12.7846 12.9786 13.1739 13.3706 13.5685 13.7677 13.9681 14.1697 14.3723 14.5761 14.7809 14.9868 15.1937 15.4015 15.6103 15.8199 16.0305 16.2419 16.4542 16.6672 16.881 17.0956 17.3109 17.527 17.7437 17.9611 18.1792 18.3979 18.6172 18.8372 19.0577 19.2788 19.5004 19.7226 19.9453 20.1686 
25.192 24.6736 24.125 23.5828 23.0507 22.5319 22.0288 21.5431 21.0758 20.6275 20.198 19.7867 19.3928 19.0154 18.6533 18.3054 17.9705 17.6476 17.3355 17.0333 16.7402 16.4553 16.1779 15.9073 15.643 15.3845 15.1313 14.8829 14.6392 14.3997 14.1641 13.9323 13.7041 13.4792 13.2576 13.039 12.8234 12.6107 12.4008 12.1936 11.9891 11.7873 11.5882 11.3916 11.1977 11.0064 10.8176 10.6316 10.4482 10.2675 10.0895 9.91426 9.74186 9.57233 9.40573 9.24211 9.08155 8.92412 8.76988 8.61892 8.47132 8.32716 8.18653 8.04953 7.91625 7.78678 7.66122 7.53968 7.42225 7.30903 7.20013 7.09566 6.9957 6.90037 6.80977 6.72399 6.64313 6.56729 6.49655 6.431 6.37072 6.3158 6.26629 6.22226 6.18378 6.15089 6.12363 6.10205 6.08617 6.07601 6.07157 6.07003 6.06854 6.0671 6.0657 6.06434 6.06302 6.06175 6.06051 6.05931 6.05814 6.05701 6.05591 6.05484 6.0538 6.05279 6.05181 6.05086 6.04993 6.04903 6.04815 6.05013 6.05782 6.07119 6.09022 6.11488 6.14514 6.18094 6.22223 6.26895 6.32103 6.3784 6.44096 6.50865 6.58136 6.659 6.74148 6.82868 6.92051 7.01685 7.11761 7.22266 7.3319 7.44522 7.5625 7.68364 7.80853 7.93705 8.0691 8.20457 8.34335 8.48535 8.63047 8.77859 8.92964 9.08351 9.24011 9.39935 9.56114 9.72541 9.89207 10.061 10.2322 10.4056 10.581 10.7585 10.9379 11.1192 11.3023 11.4871 11.6737 11.8619 12.0517 12.243 12.4358 12.6301 12.8257 13.0227 13.221 13.4206 13.6213 13.8233 14.0264 14.2306 14.4358 14.6421 14.8494 15.0577 15.2669 15.4771 15.6881 15.9 16.1127 16.3262 16.5405 16.7556 16.9714 17.188 17.4052 17.6231 17.8417 18.0609 18.2807 18.5011 18.7221 18.9437 19.1658 19.3885 19.6117 19.8354 20.0596 