# vtk DataFile Version 2.0
2D Surface
ASCII
DATASET RECTILINEAR_GRID
DIMENSIONS 201 201 1
X_COORDINATES 201 float
0
0.25
0.5
0.75
1
1.25
1.5
1.75
2
2.25
2.5
2.75
3
3.25
3.5
3.75
4
4.25
4.5
4.75
5
5.25
5.5
5.75
6
6.25
6.5
6.75
7
7.25
7.5
7.75
8
8.25
8.5
8.75
9
9.25
9.5
9.75
10
10.25
10.5
10.75
11
11.25
11.5
11.75
12
12.25
12.5
12.75
13
13.25
13.5
13.75
14
14.25
14.5
14.75
15
15.25
15.5
15.75
16
16.25
16.5
16.75
17
17.25
17.5
17.75
18
18.25
18.5
18.75
19
19.25
19.5
19.75
20
20.25
20.5
20.75
21
21.25
21.5
21.75
22
22.25
22.5
22.75
23
23.25
23.5
23.75
24
24.25
24.5
24.75
25
25.25
25.5
25.75
26
26.25
26.5
26.75
27
27.25
27.5
27.75
28
28.25
28.5
28.75
29
29.25
29.5
29.75
30
30.25
30.5
30.75
31
31.25
31.5
31.75
32
32.25
32.5
32.75
33
33.25
33.5
33.75
34
34.25
34.5
34.75
35
35.25
35.5
35.75
36
36.25
36.5
36.75
37
37.25
37.5
37.75
38
38.25
38.5
38.75
39
39.25
39.5
39.75
40
40.25
40.5
40.75
41
41.25
41.5
41.75
42
42.25
42.5
42.75
43
43.25
43.5
43.75
44
44.25
44.5
44.75
45
45.25
45.5
45.75
46
46.25
46.5
46.75
47
47.25
47.5
47.75
48
48.25
48.5
48.75
49
49.25
49.5
49.75
50
Y_COORDINATES 201 float
0
0.25
0.5
0.75
1
1.25
1.5
1.75
2
2.25
2.5
2.75
3
3.25
3.5
3.75
4
4.25
4.5
4.75
5
5.25
5.5
5.75
6
6.25
6.5
6.75
7
7.25
7.5
7.75
8
8.25
8.5
8.75
9
9.25
9.5
9.75
10
10.25
10.5
10.75
11
11.25
11.5
11.75
12
12.25
12.5
12.75
13
13.25
13.5
13.75
14
14.25
14.5
14.75
15
15.25
15.5
15.75
16
16.25
16.5
16.75
17
17.25
17.5
17.75
18
18.25
18.5
18.75
19
19.25
19.5
19.75
20
20.25
20.5
20.75
21
21.25
21.5
21.75
22
22.25
22.5
22.75
23
23.25
23.5
23.75
24
24.25
24.5
24.75
25
25.25
25.5
25.75
26
26.25
26.5
26.75
27
27.25
27.5
27.75
28
28.25
28.5
28.75
29
29.25
29.5
29.75
30
30.25
30.5
30.75
31
31.25
31.5
31.75
32
32.25
32.5
32.75
33
33.25
33.5
33.75
34
34.25
34.5
34.75
35
35.25
35.5
35.75
36
36.25
36.5
36.75
37
37.25
37.5
37.75
38
38.25
38.5
38.75
39
39.25
39.5
39.75
40
40.25
40.5
40.75
41
41.25
41.5
41.75
42
42.25
42.5
42.75
43
43.25
43.5
43.75
44
44.25
44.5
44.75
45
45.25
45.5
45.75
46
46.25
46.5
46.75
47
47.25
47.5
47.75
48
48.25
48.5
48.75
49
49.25
49.5
49.75
50
Z_COORDINATES 1 float
0
POINT_DATA 40401
SCALARS SDValues float
LOOKUP_TABLE default
35.3621 18.5135 16.8344 16.495 16.253 16.0335 15.8221 15.6148 15.4099 15.2067 15.005 14.8046 14.6053 14.4071 14.2099 14.0139 13.8189 13.625 13.4322 13.2406 13.0501 12.8607 12.6725 12.4856 12.2999 12.1155 11.9324 11.7506 11.5703 11.3913 11.2137 11.0377 10.8631 10.6901 10.5187 10.3489 10.1808 10.0144 9.84975 9.68691 9.52591 9.36681 9.20963 9.05445 8.9013 8.75023 8.60129 8.45454 8.31003 8.16781 8.02794 7.89047 7.75545 7.62295 7.49301 7.36571 7.24109 7.11921 7.00014 6.88393 6.77064 6.66033 6.55306 6.4489 6.34789 6.25011 6.1556 6.06443 5.97664 5.89231 5.81148 5.73421 5.66055 5.59055 5.52426 5.46173 5.403 5.34812 5.29713 5.25007 5.20698 5.16788 5.13281 5.1018 5.07488 5.05206 5.03336 5.0188 5.00839 5.00214 5.00006 5.00006 5.00005 5.00005 5.00005 5.00005 5.00005 5.00005 5.00005 5.00005 5.00005 5.00004 5.00004 5.00004 5.00004 5.00004 5.00004 5.00004 5.00004 5.00004 5.00004 5.00212 5.00837 5.01877 5.03333 5.05203 5.07485 5.10177 5.13278 5.16784 5.20694 5.25003 5.29709 5.34808 5.40295 5.46168 5.5242 5.59049 5.66049 5.73415 5.81142 5.89224 5.97657 6.06435 6.15552 6.25003 6.34781 6.44881 6.55297 6.66023 6.77053 6.88382 7.00002 7.11909 7.24096 7.36558 7.49288 7.6228 7.7553 7.89031 8.02778 8.16764 8.30985 8.45436 8.60109 8.75002 8.90108 9.05422 9.20939 9.36655 9.52564 9.68662 9.84945 10.0141 10.1805 10.3485 10.5183 10.6897 10.8627 11.0372 11.2132 11.3907 11.5697 11.75 11.9317 12.1148 12.2991 12.4847 12.6716 12.8596 13.0489 13.2393 13.4308 13.6234 13.817 14.0117 14.2075 14.4042 14.6018 14.8005 15 15.2005 15.4018 15.604 15.807 16.0108 16.2155 16.4209 16.6271 16.834 17.0416 
35.2243 18.3745 16.6944 16.3539 16.1108 15.8901 15.6776 15.4691 15.263 15.0587 14.8558 14.6542 14.4536 14.2542 14.0558 13.8585 13.6622 13.4671 13.273 13.08 12.8881 12.6974 12.5079 12.3196 12.1325 11.9467 11.7622 11.579 11.3972 11.2167 11.0377 10.8601 10.6841 10.5096 10.3366 10.1653 9.99567 9.82772 9.66151 9.4971 9.33452 9.17382 9.01506 8.85827 8.70351 8.55083 8.40029 8.25192 8.10579 7.96196 7.82047 7.68138 7.54476 7.41065 7.27912 7.15022 7.02403 6.90059 6.77996 6.66221 6.54741 6.4356 6.32686 6.22124 6.11881 6.01963 5.92375 5.83124 5.74216 5.65656 5.57451 5.49606 5.42126 5.35017 5.28284 5.21931 5.15965 5.10388 5.05207 5.00424 4.96044 4.92069 4.88504 4.85352 4.82614 4.80293 4.78392 4.76912 4.75853 4.75218 4.75006 4.75006 4.75005 4.75005 4.75005 4.75005 4.75005 4.75005 4.75005 4.75005 4.75005 4.75004 4.75004 4.75004 4.75004 4.75004 4.75004 4.75004 4.75004 4.75004 4.75004 4.75216 4.75851 4.76909 4.78389 4.80291 4.82611 4.85348 4.88501 4.92066 4.9604 5.0042 5.05202 5.10384 5.1596 5.21926 5.28278 5.35011 5.4212 5.49599 5.57445 5.65649 5.74209 5.83117 5.92367 6.01954 6.11873 6.22115 6.32677 6.4355 6.5473 6.66211 6.77985 6.90047 7.0239 7.15009 7.27898 7.41051 7.54461 7.68123 7.8203 7.96179 8.10561 8.25173 8.40009 8.55063 8.70329 8.85804 9.01482 9.17357 9.33425 9.49681 9.66121 9.8274 9.99533 10.165 10.3363 10.5092 10.6836 10.8597 11.0372 11.2162 11.3966 11.5784 11.7615 11.946 12.1317 12.3187 12.507 12.6964 12.887 13.0787 13.2715 13.4654 13.6604 13.8564 14.0533 14.2513 14.4502 14.6501 14.8508 15.0525 15.255 15.4583 15.6625 15.8675 16.0732 16.2798 16.487 16.695 16.9038 
30.0386 23.2866 18.9029 17.3068 16.5749 16.1269 15.7925 15.5114 15.2586 15.0224 14.7965 14.5778 14.364 14.1541 13.9472 13.7428 13.5405 13.3401 13.1415 12.9444 12.7489 12.5548 12.3622 12.171 11.9812 11.7928 11.6058 11.4203 11.2362 11.0535 10.8724 10.6927 10.5146 10.3381 10.1632 9.98992 9.81833 9.64846 9.48036 9.31406 9.14962 8.98706 8.82645 8.66782 8.51123 8.35673 8.20436 8.05419 7.90626 7.76064 7.61737 7.47651 7.33813 7.20227 7.069 6.93839 6.81048 6.68535 6.56305 6.44366 6.32722 6.2138 6.10348 5.99631 5.89235 5.79167 5.69433 5.60039 5.50992 5.42297 5.33961 5.2599 5.18388 5.11162 5.04317 4.97859 4.91792 4.86121 4.8085 4.75984 4.71528 4.67484 4.63855 4.60646 4.57859 4.55496 4.5356 4.52051 4.50972 4.50323 4.50106 4.50103 4.50101 4.50099 4.50097 4.50095 4.50093 4.50091 4.50089 4.50087 4.50085 4.50084 4.50082 4.50081 4.50079 4.50077 4.50076 4.50075 4.50073 4.50072 4.50071 4.50285 4.5093 4.52005 4.5351 4.55442 4.57801 4.60584 4.63789 4.67413 4.71453 4.75905 4.80767 4.86032 4.91699 4.97761 5.04215 5.11054 5.18275 5.25871 5.33837 5.42167 5.50855 5.59896 5.69283 5.7901 5.89071 5.99459 6.10169 6.21193 6.32526 6.44161 6.56092 6.68312 6.80815 6.93594 7.06645 7.19959 7.33532 7.47358 7.61429 7.75741 7.90288 8.05064 8.20063 8.35281 8.50711 8.66348 8.82187 8.98224 9.14452 9.30868 9.47467 9.64243 9.81193 9.98312 10.156 10.3304 10.5064 10.6839 10.8629 11.0434 11.2253 11.4085 11.5931 11.779 11.9662 12.1546 12.3442 12.535 12.7269 12.92 13.1141 13.3093 13.5056 13.7028 13.9011 14.1003 14.3004 14.5015 14.7035 14.9063 15.11 15.3145 15.5198 15.7259 15.9328 16.1405 16.3488 16.5579 16.7677 
28.553 24.5019 20.8789 18.7117 17.4731 16.7021 16.1652 15.7528 15.4112 15.1124 14.841 14.5879 14.3477 14.1169 13.8931 13.6748 13.4609 13.2507 13.0436 12.8392 12.6371 12.4373 12.2395 12.0435 11.8494 11.657 11.4663 11.2773 11.0899 10.9042 10.72 10.5375 10.3567 10.1776 10.0001 9.82436 9.65036 9.47814 9.30773 9.13917 8.97249 8.80775 8.64497 8.48422 8.32552 8.16894 8.01452 7.86231 7.71236 7.56474 7.41949 7.27667 7.13635 6.99857 6.8634 6.7309 6.60114 6.47416 6.35005 6.22886 6.11066 5.99551 5.88347 5.77462 5.66902 5.56673 5.46782 5.37234 5.28038 5.19198 5.10722 5.02614 4.94882 4.87531 4.80566 4.73993 4.67817 4.62044 4.56677 4.51722 4.47182 4.43062 4.39365 4.36094 4.33253 4.30843 4.28867 4.27326 4.26223 4.25557 4.2533 4.25323 4.25316 4.25309 4.25303 4.25296 4.2529 4.25284 4.25278 4.25273 4.25267 4.25262 4.25257 4.25252 4.25247 4.25242 4.25238 4.25233 4.25229 4.25225 4.25221 4.25436 4.2609 4.27181 4.2871 4.30674 4.33071 4.359 4.39158 4.42842 4.46949 4.51475 4.56416 4.61768 4.67527 4.73687 4.80244 4.87193 4.94527 5.02242 5.10332 5.1879 5.2761 5.36787 5.46313 5.56183 5.6639 5.76927 5.87788 5.98966 6.10454 6.22247 6.34337 6.46718 6.59383 6.72326 6.8554 6.9902 7.12759 7.2675 7.40987 7.55466 7.70179 7.85121 8.00286 8.15669 8.31263 8.47065 8.63068 8.79267 8.95658 9.12235 9.28994 9.45929 9.63037 9.80312 9.97752 10.1535 10.331 10.5101 10.6906 10.8725 11.0559 11.2406 11.4266 11.6139 11.8025 11.9923 12.1833 12.3755 12.5688 12.7632 12.9586 13.1552 13.3527 13.5513 13.7508 13.9512 14.1526 14.3549 14.5581 14.7621 14.9669 15.1726 15.3791 15.5863 15.7943 16.0031 16.2126 16.4227 16.6336 
27.8511 24.9369 22.0541 19.9052 18.43 17.4149 16.6848 16.1287 15.6812 15.3035 14.9722 14.6729 14.3963 14.1364 13.8889 13.651 13.4208 13.1967 12.9777 12.7629 12.5518 12.344 12.139 11.9366 11.7367 11.5389 11.3433 11.1497 10.9581 10.7684 10.5805 10.3944 10.2102 10.0279 9.8473 9.66858 9.4917 9.31669 9.14357 8.97237 8.80313 8.63587 8.47063 8.30746 8.14639 7.98747 7.83075 7.67627 7.5241 7.37427 7.22684 7.08188 6.93943 6.79956 6.66232 6.52778 6.396 6.26704 6.14097 6.01785 5.89775 5.78073 5.66686 5.55621 5.44885 5.34483 5.24423 5.14712 5.05356 4.96361 4.87734 4.79481 4.71609 4.64123 4.5703 4.50334 4.44042 4.38159 4.32689 4.27637 4.23008 4.18805 4.15033 4.11695 4.08794 4.06332 4.04312 4.02735 4.01604 4.00918 4.0068 4.00665 4.0065 4.00636 4.00623 4.0061 4.00597 4.00585 4.00573 4.00561 4.0055 4.00539 4.00529 4.00518 4.00508 4.00499 4.00489 4.0048 4.00471 4.00463 4.00454 4.00669 4.01331 4.02438 4.0399 4.05985 4.08421 4.11296 4.14608 4.18353 4.22528 4.27128 4.32151 4.37591 4.43444 4.49705 4.56368 4.63428 4.70879 4.78716 4.86932 4.9552 5.04476 5.13791 5.2346 5.33476 5.43832 5.5452 5.65536 5.7687 5.88518 6.00471 6.12724 6.25268 6.38098 6.51208 6.64589 6.78236 6.92143 7.06302 7.20709 7.35356 7.50237 7.65348 7.80681 7.96231 8.11992 8.2796 8.44128 8.60492 8.77047 8.93786 9.10706 9.27802 9.45069 9.62502 9.80098 9.97851 10.1576 10.3382 10.5202 10.7036 10.8885 11.0746 11.2621 11.4509 11.6409 11.8321 12.0244 12.218 12.4126 12.6084 12.8052 13.003 13.2018 13.4017 13.6024 13.8041 14.0068 14.2103 14.4146 14.6198 14.8259 15.0327 15.2403 15.4487 15.6578 15.8677 16.0782 16.2895 16.5014 
27.4096 25.115 22.7481 20.7813 19.2628 18.1193 17.2504 16.5718 16.0234 15.5646 15.1686 14.8173 14.4987 14.2043 13.9283 13.6667 13.4164 13.1751 12.9413 12.7137 12.4914 12.2736 12.0597 11.8494 11.6422 11.4379 11.2363 11.0371 10.8403 10.6458 10.4534 10.2632 10.075 9.8888 9.70463 9.52244 9.34223 9.16402 8.98781 8.81362 8.64147 8.47138 8.30338 8.13751 7.9738 7.8123 7.65305 7.49608 7.34146 7.18923 7.03943 6.89213 6.74739 6.60525 6.46578 6.32904 6.1951 6.064 5.93583 5.81065 5.68851 5.5695 5.45367 5.34109 5.23185 5.12599 5.0236 4.92473 4.82946 4.73786 4.64999 4.56591 4.4857 4.4094 4.3371 4.26883 4.20466 4.14465 4.08884 4.03729 3.99004 3.94713 3.9086 3.87449 3.84483 3.81964 3.79895 3.78279 3.77116 3.76407 3.76153 3.76128 3.76104 3.7608 3.76057 3.76035 3.76013 3.75992 3.75972 3.75952 3.75933 3.75915 3.75897 3.7588 3.75863 3.75846 3.7583 3.75815 3.758 3.75785 3.75771 3.75984 3.76652 3.77774 3.79349 3.81375 3.83851 3.86773 3.90139 3.93946 3.9819 4.02867 4.07973 4.13503 4.19452 4.25816 4.32587 4.39761 4.47332 4.55294 4.63639 4.72361 4.81455 4.90912 5.00727 5.10892 5.214 5.32244 5.43416 5.54911 5.66721 5.78838 5.91256 6.03967 6.16965 6.30243 6.43795 6.57612 6.71689 6.8602 7.00598 7.15416 7.30468 7.45749 7.61252 7.76971 7.92902 8.09037 8.25373 8.41903 8.58622 8.75526 8.92608 9.09866 9.27293 9.44885 9.62639 9.80548 9.9861 10.1682 10.3517 10.5367 10.723 10.9106 11.0996 11.2898 11.4812 11.6738 11.8676 12.0625 12.2585 12.4556 12.6537 12.8528 13.053 13.2541 13.4561 13.6591 13.8629 14.0676 14.2732 14.4796 14.6868 14.8948 15.1035 15.313 15.5232 15.7342 15.9458 16.1581 16.3711 
27.0853 25.1792 23.1729 21.4031 19.9316 18.7454 17.7959 17.0288 16.3975 15.8659 15.4079 15.0045 14.6421 14.311 14.004 13.716 13.443 13.1823 12.9316 12.6892 12.4538 12.2244 12.0002 11.7806 11.565 11.3531 11.1445 10.9389 10.7361 10.5361 10.3385 10.1434 9.95066 9.76015 9.57186 9.38575 9.2018 9.02 8.84033 8.6628 8.48741 8.31419 8.14315 7.97432 7.80772 7.6434 7.48138 7.32171 7.16443 7.0096 6.85724 6.70743 6.56021 6.41564 6.27378 6.13469 5.99842 5.86505 5.73464 5.60725 5.48295 5.36181 5.24389 5.12928 5.01803 4.91022 4.80591 4.70519 4.60811 4.51475 4.42517 4.33945 4.25765 4.17983 4.10606 4.0364 3.97091 3.90964 3.85265 3.79999 3.75171 3.70785 3.66845 3.63355 3.60319 3.57738 3.55617 3.53956 3.52757 3.52022 3.51751 3.51712 3.51675 3.51639 3.51604 3.51571 3.51538 3.51506 3.51476 3.51446 3.51417 3.51389 3.51362 3.51335 3.5131 3.51285 3.51261 3.51237 3.51214 3.51192 3.5117 3.51381 3.52054 3.53191 3.54788 3.56845 3.5936 3.62329 3.65751 3.69621 3.73936 3.78691 3.83883 3.89505 3.95553 4.02021 4.08904 4.16195 4.23888 4.31977 4.40455 4.49315 4.5855 4.68153 4.78116 4.88434 4.99097 5.10099 5.21433 5.33091 5.45066 5.5735 5.69937 5.82818 5.95987 6.09438 6.23161 6.37152 6.51403 6.65907 6.80658 6.95649 7.10875 7.26328 7.42003 7.57894 7.73996 7.90301 8.06805 8.23503 8.40389 8.57458 8.74705 8.92125 9.09714 9.27466 9.45378 9.63444 9.81662 10.0003 10.1853 10.3718 10.5596 10.7487 10.9391 11.1307 11.3236 11.5176 11.7128 11.909 12.1064 12.3048 12.5043 12.7047 12.9061 13.1085 13.3118 13.516 13.7211 13.927 14.1338 14.3413 14.5497 14.7588 14.9687 15.1793 15.3907 15.6027 15.8154 16.0288 16.2428 
26.824 25.184 23.439 21.8437 20.4518 19.2731 18.2882 17.4658 16.7735 16.1826 15.6704 15.2188 14.8143 14.4466 14.108 13.7925 13.4957 13.2141 12.9451 12.6866 12.4368 12.1947 11.959 11.729 11.504 11.2835 11.0671 10.8543 10.6449 10.4386 10.2353 10.0348 9.8369 9.64158 9.44873 9.25829 9.0702 8.88443 8.70096 8.51976 8.34085 8.16421 7.98985 7.8178 7.64807 7.4807 7.3157 7.15311 6.99298 6.83535 6.68026 6.52775 6.37789 6.23073 6.08632 5.94472 5.80599 5.67019 5.5374 5.40767 5.28107 5.15768 5.03755 4.92077 4.8074 4.69752 4.5912 4.4885 4.3895 4.29428 4.2029 4.11543 4.03195 3.95251 3.87719 3.80605 3.73915 3.67655 3.6183 3.56446 3.51508 3.4702 3.42987 3.39413 3.36301 3.33654 3.31475 3.29766 3.28528 3.27763 3.27471 3.27417 3.27364 3.27314 3.27265 3.27217 3.27171 3.27126 3.27083 3.27041 3.27 3.26961 3.26923 3.26885 3.26849 3.26814 3.2678 3.26747 3.26714 3.26683 3.26653 3.26859 3.27537 3.28687 3.30307 3.32395 3.34949 3.37967 3.41445 3.45379 3.49767 3.54602 3.59881 3.65597 3.71747 3.78323 3.8532 3.92731 4.0055 4.08769 4.17383 4.26383 4.35763 4.45515 4.55631 4.66105 4.76927 4.88091 4.9959 5.11414 5.23558 5.36013 5.48771 5.61826 5.75169 5.88794 6.02694 6.1686 6.31287 6.45968 6.60895 6.76062 6.91463 7.07091 7.22941 7.39005 7.55279 7.71756 7.88431 8.05298 8.22352 8.39588 8.57 8.74584 8.92335 9.10249 9.2832 9.46544 9.64918 9.83437 10.021 10.2089 10.3982 10.5888 10.7807 10.9738 11.168 11.3635 11.56 11.7577 11.9564 12.1561 12.3569 12.5587 12.7614 12.965 13.1696 13.375 13.5813 13.7885 13.9964 14.2052 14.4147 14.625 14.836 15.0477 15.2601 15.4733 15.687 15.9015 16.1165 
26.6008 25.1541 23.6056 22.1572 20.8518 19.7061 18.7158 17.8647 17.1319 16.4965 15.94 15.4467 15.004 14.602 14.2328 13.8902 13.5693 13.2663 12.9783 12.7028 12.4379 12.1821 11.9341 11.693 11.4579 11.2281 11.0031 10.7825 10.5658 10.3528 10.1432 9.93674 9.73331 9.53274 9.33493 9.13976 8.94717 8.75711 8.56951 8.38436 8.20162 8.02129 7.84337 7.66786 7.49477 7.32412 7.15593 6.99023 6.82706 6.66645 6.50843 6.35307 6.20041 6.05049 5.90337 5.75911 5.61777 5.47942 5.3441 5.2119 5.08288 4.9571 4.83465 4.71558 4.59998 4.48791 4.37945 4.27467 4.17365 4.07646 3.98318 3.89387 3.8086 3.72746 3.6505 3.57779 3.50939 3.44537 3.38579 3.3307 3.28015 3.23419 3.19287 3.15623 3.1243 3.09711 3.0747 3.05708 3.04427 3.03629 3.03314 3.03241 3.03171 3.03103 3.03037 3.02974 3.02912 3.02852 3.02794 3.02738 3.02683 3.0263 3.02579 3.02529 3.0248 3.02433 3.02388 3.02343 3.023 3.02258 3.02217 3.02417 3.03099 3.04262 3.05904 3.08024 3.10618 3.13685 3.17221 3.21221 3.25682 3.306 3.35968 3.41782 3.48035 3.54722 3.61836 3.6937 3.77318 3.85672 3.94425 4.0357 4.13098 4.23002 4.33275 4.43908 4.54893 4.66223 4.7789 4.89885 5.022 5.14829 5.27763 5.40994 5.54515 5.68318 5.82396 5.96742 6.11348 6.26207 6.41313 6.56658 6.72237 6.88043 7.04068 7.20308 7.36756 7.53407 7.70254 7.87292 8.04515 8.21919 8.39498 8.57248 8.75162 8.93238 9.11469 9.29853 9.48383 9.67057 9.8587 10.0482 10.239 10.4311 10.6244 10.8189 11.0146 11.2114 11.4094 11.6084 11.8085 12.0096 12.2117 12.4147 12.6187 12.8237 13.0295 13.2361 13.4437 13.652 13.8611 14.0711 14.2817 14.4932 14.7053 14.9181 15.1317 15.3458 15.5607 15.7762 15.9923 
26.4028 25.1028 23.7067 22.3806 21.158 20.0564 19.0787 18.218 17.4618 16.7955 16.205 15.6774 15.2018 14.769 14.3714 14.003 13.6587 13.3347 13.0276 12.735 12.4545 12.1846 11.9238 11.671 11.4252 11.1856 10.9516 10.7226 10.4982 10.2779 10.0616 9.84879 9.6394 9.43321 9.23007 9.02985 8.83244 8.63777 8.44576 8.25637 8.06956 7.8853 7.70358 7.52438 7.34771 7.17358 7.002 6.833 6.6666 6.50283 6.34173 6.18335 6.02772 5.87489 5.72492 5.57786 5.43377 5.29271 5.15475 5.01995 4.88837 4.76009 4.63518 4.51371 4.39575 4.28138 4.17067 4.06371 3.96056 3.8613 3.766 3.67475 3.58761 3.50466 3.42597 3.3516 3.28163 3.21612 3.15512 3.0987 3.04691 2.99981 2.95743 2.91983 2.88703 2.85908 2.836 2.81781 2.80454 2.79619 2.79277 2.79184 2.79093 2.79006 2.78921 2.78839 2.78759 2.78682 2.78607 2.78535 2.78465 2.78396 2.7833 2.78266 2.78203 2.78142 2.78083 2.78026 2.7797 2.77916 2.77863 2.78057 2.78742 2.79917 2.81581 2.83732 2.86368 2.89484 2.93079 2.97147 3.01684 3.06686 3.12146 3.18059 3.24419 3.3122 3.38454 3.46115 3.54196 3.62688 3.71584 3.80876 3.90557 4.00618 4.11051 4.21847 4.32999 4.44499 4.56337 4.68506 4.80998 4.93804 5.06916 5.20327 5.34029 5.48013 5.62273 5.76801 5.91588 6.06629 6.21917 6.37443 6.53202 6.69187 6.85391 7.01808 7.18433 7.35258 7.52279 7.6949 7.86884 8.04458 8.22205 8.4012 8.582 8.76438 8.94831 9.13373 9.32061 9.50891 9.69858 9.88959 10.0819 10.2754 10.4702 10.6662 10.8633 11.0616 11.2609 11.4613 11.6628 11.8652 12.0686 12.273 12.4783 12.6844 12.8915 13.0994 13.3081 13.5177 13.728 13.9391 14.1509 14.3634 14.5767 14.7906 15.0053 15.2205 15.4364 15.6529 15.8701 
26.2224 25.0375 23.7626 22.5386 21.3916 20.3376 19.3827 18.5252 17.7583 17.0726 16.4575 15.9032 15.4003 14.9408 14.5179 14.1257 13.7595 13.4153 13.0897 12.78 12.4841 12.2 11.9262 11.6614 11.4046 11.1548 10.9114 10.6737 10.4411 10.2133 9.9898 9.77035 9.55467 9.34254 9.13376 8.92819 8.72568 8.52614 8.32947 8.13559 7.94447 7.75605 7.5703 7.38721 7.20677 7.02897 6.85382 6.68134 6.51154 6.34445 6.1801 6.01854 5.85979 5.70391 5.55094 5.40094 5.25396 5.11007 4.96933 4.83179 4.69754 4.56663 4.43914 4.31515 4.19472 4.07794 3.96487 3.85561 3.75022 3.64879 3.55138 3.45809 3.36898 3.28413 3.20361 3.1275 3.05587 2.98877 2.92628 2.86846 2.81536 2.76704 2.72354 2.68492 2.6512 2.62244 2.59864 2.57985 2.56607 2.55732 2.55361 2.55244 2.55131 2.55022 2.54915 2.54813 2.54713 2.54617 2.54523 2.54432 2.54344 2.54258 2.54175 2.54095 2.54017 2.5394 2.53867 2.53795 2.53725 2.53657 2.53591 2.53776 2.54463 2.5565 2.57337 2.5952 2.62197 2.65364 2.69019 2.73157 2.77772 2.8286 2.88415 2.94431 3.00901 3.07819 3.15177 3.22968 3.31185 3.39819 3.48862 3.58306 3.68143 3.78365 3.88962 3.99926 4.11249 4.22922 4.34936 4.47283 4.59954 4.72942 4.86237 4.99831 5.13717 5.27886 5.4233 5.57042 5.72015 5.8724 6.02712 6.18421 6.34363 6.50529 6.66914 6.83511 7.00314 7.17316 7.34512 7.51897 7.69464 7.87208 8.05124 8.23207 8.41452 8.59854 8.78409 8.97111 9.15958 9.34944 9.54065 9.73318 9.92699 10.122 10.3183 10.5157 10.7143 10.9139 11.1147 11.3164 11.5192 11.723 11.9277 12.1334 12.3399 12.5474 12.7557 12.9648 13.1748 13.3855 13.597 13.8092 14.0222 14.2359 14.4502 14.6653 14.881 15.0973 15.3142 15.5318 15.7499 
26.0551 24.9628 23.7866 22.6484 21.5689 20.562 19.6349 18.7888 18.0206 17.3244 16.6929 16.1186 15.594 15.1122 14.6673 14.2539 13.8676 13.5045 13.1613 12.8352 12.5241 12.226 11.9392 11.6625 11.3945 11.1344 10.8814 10.6347 10.3937 10.1581 9.9272 9.70081 9.47858 9.26024 9.04558 8.83441 8.62656 8.42191 8.22035 8.02178 7.82613 7.63335 7.44339 7.25622 7.07182 6.89017 6.71128 6.53515 6.36179 6.19122 6.02348 5.85858 5.69658 5.5375 5.3814 5.22832 5.07833 4.93147 4.78782 4.64743 4.51037 4.37672 4.24653 4.1199 3.99689 3.87758 3.76205 3.65038 3.54264 3.43893 3.33931 3.24388 3.1527 3.06585 2.98342 2.90548 2.83209 2.76333 2.69927 2.63997 2.58549 2.53588 2.4912 2.4515 2.41681 2.38717 2.36261 2.34317 2.32885 2.31967 2.31564 2.31421 2.31283 2.31149 2.31019 2.30894 2.30772 2.30654 2.30539 2.30428 2.30321 2.30216 2.30114 2.30016 2.2992 2.29827 2.29737 2.29649 2.29563 2.2948 2.29399 2.29575 2.30263 2.31463 2.33171 2.35386 2.38106 2.41326 2.45042 2.49251 2.53947 2.59124 2.64777 2.70898 2.77482 2.8452 2.92006 2.99931 3.08288 3.17068 3.26262 3.35863 3.45861 3.56247 3.67013 3.78149 3.89647 4.01497 4.13691 4.2622 4.39075 4.52247 4.65728 4.79509 4.93583 5.07939 5.22572 5.37472 5.52633 5.68045 5.83703 5.99599 6.15725 6.32075 6.48643 6.65421 6.82404 6.99585 7.16958 7.34518 7.52258 7.70175 7.88261 8.06512 8.24924 8.4349 8.62208 8.81071 9.00076 9.19219 9.38495 9.57901 9.77433 9.97086 10.1686 10.3674 10.5674 10.7685 10.9706 11.1738 11.3779 11.583 11.789 11.996 12.2038 12.4125 12.6221 12.8324 13.0436 13.2555 13.4682 13.6816 13.8957 14.1105 14.3259 14.542 14.7588 14.9762 15.1942 15.4128 15.6319 
25.8979 24.8818 23.7872 22.7218 21.7021 20.74 19.8426 19.0128 18.2496 17.5499 16.9086 16.3202 15.779 15.2792 14.8157 14.3839 13.9796 13.5991 13.2395 12.8981 12.5725 12.2607 11.9613 11.6726 11.3936 11.1231 10.8604 10.6046 10.3552 10.1115 9.87306 9.63954 9.41056 9.18582 8.96508 8.74811 8.53472 8.32477 8.11813 7.91468 7.71433 7.51701 7.32266 7.13123 6.94271 6.75706 6.57426 6.39433 6.21727 6.04308 5.87179 5.70343 5.53803 5.37562 5.21625 5.05997 4.90684 4.75689 4.61021 4.46684 4.32686 4.19034 4.05735 3.92796 3.80225 3.68031 3.5622 3.44801 3.33783 3.23173 3.1298 3.03212 2.93877 2.84983 2.76539 2.68552 2.6103 2.5398 2.47408 2.41322 2.35729 2.30632 2.2604 2.21955 2.18382 2.15327 2.1279 2.10776 2.09287 2.08323 2.07885 2.07714 2.07548 2.07387 2.07232 2.07081 2.06935 2.06793 2.06656 2.06523 2.06393 2.06268 2.06146 2.06028 2.05913 2.05801 2.05693 2.05587 2.05484 2.05385 2.05287 2.05453 2.06142 2.07353 2.09083 2.11332 2.14095 2.17368 2.21149 2.25431 2.3021 2.35479 2.41232 2.47463 2.54163 2.61326 2.68943 2.77007 2.85508 2.94438 3.03788 3.1355 3.23712 3.34268 3.45207 3.56519 3.68196 3.80229 3.92607 4.05322 4.18364 4.31725 4.45396 4.59368 4.73632 4.8818 5.03004 5.18096 5.33446 5.49049 5.64896 5.8098 5.97294 6.1383 6.30582 6.47544 6.64709 6.8207 6.99622 7.17358 7.35274 7.53363 7.71621 7.90042 8.0862 8.27352 8.46233 8.65258 8.84422 9.03722 9.23153 9.42712 9.62394 9.82197 10.0212 10.2215 10.4229 10.6254 10.8289 11.0334 11.2389 11.4453 11.6526 11.8609 12.07 12.2799 12.4907 12.7023 12.9146 13.1277 13.3415 13.5561 13.7713 13.9872 14.2038 14.421 14.6388 14.8572 15.0763 15.2959 15.516 
25.7489 24.7964 23.7704 22.7674 21.8006 20.8801 20.0127 19.2018 18.4479 17.7496 17.1037 16.5063 15.9528 15.4389 14.9602 14.5126 14.0925 13.6967 13.3221 12.9662 12.6269 12.3023 11.9905 11.6903 11.4004 11.1198 10.8474 10.5825 10.3245 10.0727 9.82668 9.58591 9.35005 9.11877 8.89179 8.66887 8.44979 8.23439 8.02251 7.81401 7.6088 7.40679 7.2079 7.01208 6.81929 6.62948 6.44265 6.25878 6.07787 5.89993 5.72497 5.55301 5.38408 5.21822 5.05547 4.89586 4.73946 4.58631 4.43647 4.29001 4.147 4.0075 3.87158 3.73933 3.61081 3.48611 3.36532 3.24851 3.13577 3.02718 2.92283 2.82281 2.72719 2.63607 2.54953 2.46764 2.39049 2.31815 2.2507 2.18821 2.13074 2.07835 2.03111 1.98906 1.95224 1.92071 1.89449 1.87362 1.8581 1.84797 1.84322 1.8412 1.83924 1.83735 1.83551 1.83373 1.83201 1.83034 1.82872 1.82714 1.82562 1.82414 1.8227 1.8213 1.81994 1.81862 1.81734 1.81609 1.81488 1.8137 1.81255 1.8141 1.82098 1.8332 1.85074 1.87356 1.90163 1.93493 1.97339 2.01697 2.06561 2.11925 2.17783 2.24126 2.30947 2.38238 2.45991 2.54197 2.62848 2.71933 2.81443 2.9137 3.01702 3.12432 3.23548 3.35042 3.46903 3.59121 3.71688 3.84593 3.97828 4.11382 4.25246 4.39413 4.53871 4.68614 4.83633 4.98918 5.14463 5.30258 5.46297 5.62572 5.79075 5.958 6.12739 6.29886 6.47234 6.64777 6.82509 7.00424 7.18516 7.3678 7.55209 7.738 7.92547 8.11445 8.3049 8.49676 8.69 8.88458 9.08044 9.27756 9.47589 9.6754 9.87606 10.0778 10.2807 10.4845 10.6894 10.8953 11.1021 11.3099 11.5185 11.7281 11.9384 12.1496 12.3616 12.5744 12.7879 13.0022 13.2172 13.4329 13.6492 13.8662 14.0839 14.3021 14.521 14.7405 14.9605 15.1811 15.4023 
25.6067 24.7081 23.7406 22.7915 21.8715 20.9892 20.1509 19.3601 18.6183 17.925 17.2785 16.6759 16.1141 15.5895 15.0986 14.638 14.2043 13.7948 13.4067 13.0378 12.6858 12.3489 12.0255 11.7142 11.4138 11.1232 10.8413 10.5675 10.3009 10.0411 9.78735 9.53929 9.29648 9.05857 8.82526 8.59628 8.3714 8.15042 7.93317 7.71951 7.50932 7.30249 7.09893 6.89859 6.70139 6.50731 6.31632 6.12839 5.94351 5.76169 5.58293 5.40726 5.23469 5.06526 4.89899 4.73594 4.57616 4.41969 4.26659 4.11692 3.97076 3.82817 3.68921 3.55398 3.42255 3.295 3.17141 3.05187 2.93646 2.82528 2.71841 2.61594 2.51796 2.42456 2.33581 2.25182 2.17265 2.0984 2.02913 1.96492 1.90584 1.85196 1.80333 1.76001 1.72205 1.68949 1.66237 1.64071 1.62455 1.61389 1.60874 1.60639 1.60411 1.6019 1.59976 1.59769 1.59569 1.59374 1.59185 1.59002 1.58824 1.58652 1.58484 1.58321 1.58163 1.5801 1.5786 1.57715 1.57574 1.57436 1.57302 1.57444 1.58132 1.59365 1.61141 1.63458 1.66312 1.69698 1.73612 1.78049 1.83002 1.88464 1.94429 2.00889 2.07835 2.15259 2.23153 2.31506 2.4031 2.49555 2.5923 2.69327 2.79835 2.90743 3.02042 3.13721 3.25771 3.3818 3.5094 3.6404 3.7747 3.91222 4.05284 4.19648 4.34306 4.49247 4.64463 4.79946 4.95687 5.11678 5.27912 5.4438 5.61075 5.7799 5.95118 6.12452 6.29986 6.47712 6.65626 6.8372 7.0199 7.20428 7.39031 7.57793 7.76709 7.95774 8.14983 8.34331 8.53815 8.7343 8.93172 9.13037 9.33021 9.53121 9.73333 9.93654 10.1408 10.3461 10.5523 10.7596 10.9677 11.1768 11.3868 11.5976 11.8092 12.0216 12.2349 12.4488 12.6635 12.879 13.0951 13.3119 13.5294 13.7475 13.9662 14.1855 14.4054 14.6259 14.847 15.0686 15.2907 
25.4703 24.6179 23.7007 22.7986 21.9202 21.0729 20.2623 19.4919 18.7637 18.0779 17.4337 16.8292 16.2622 15.7299 15.2296 14.7582 14.3132 13.8918 13.4918 13.111 12.7473 12.3992 12.0648 11.743 11.4325 11.1322 10.8412 10.5585 10.2836 10.0158 9.7544 9.49905 9.24928 9.00472 8.76502 8.52992 8.29916 8.07252 7.84982 7.6309 7.41562 7.20387 6.99554 6.79056 6.58886 6.3904 6.19513 6.00302 5.81407 5.62826 5.4456 5.2661 5.08978 4.91666 4.74678 4.58018 4.41691 4.257 4.10053 3.94756 3.79813 3.65234 3.51024 3.37193 3.23747 3.10695 2.98046 2.85809 2.73992 2.62604 2.51654 2.41153 2.31108 2.21529 2.12425 2.03805 1.95678 1.88052 1.80934 1.74334 1.68258 1.62712 1.57704 1.53239 1.49322 1.45959 1.43151 1.40904 1.39218 1.38096 1.37539 1.37268 1.37006 1.36752 1.36506 1.36268 1.36037 1.35813 1.35596 1.35385 1.3518 1.34982 1.34789 1.34601 1.34419 1.34242 1.3407 1.33903 1.3374 1.33582 1.33427 1.33555 1.34242 1.35486 1.37286 1.39639 1.4254 1.45985 1.4997 1.54488 1.59533 1.65097 1.71174 1.77754 1.84829 1.92391 2.0043 2.08935 2.17898 2.27307 2.37153 2.47426 2.58113 2.69206 2.80692 2.92562 3.04805 3.17411 3.30368 3.43668 3.57298 3.71251 3.85515 4.00082 4.14941 4.30084 4.45501 4.61185 4.77125 4.93315 5.09746 5.2641 5.43299 5.60407 5.77726 5.95249 6.1297 6.30881 6.48977 6.67252 6.857 7.04316 7.23093 7.42026 7.61112 7.80343 7.99717 8.19228 8.38872 8.58645 8.78542 8.9856 9.18695 9.38944 9.59302 9.79766 10.0033 10.21 10.4177 10.6262 10.8357 11.0461 11.2574 11.4694 11.6823 11.896 12.1104 12.3256 12.5415 12.7581 12.9753 13.1932 13.4118 13.631 13.8508 14.0712 14.2921 14.5136 14.7357 14.9583 15.1814 
25.339 24.5266 23.6533 22.7922 21.9509 21.1355 20.351 19.6008 18.8869 18.2102 17.5705 16.9666 16.397 15.8596 15.3521 14.8723 14.4178 13.9864 13.5759 13.1845 12.8103 12.4518 12.1073 11.7756 11.4555 11.1459 10.846 10.5549 10.2718 9.99606 9.72718 9.46462 9.20792 8.95671 8.71063 8.46938 8.2327 8.00036 7.77215 7.5479 7.32746 7.1107 6.89752 6.68782 6.48153 6.27858 6.07894 5.88257 5.68944 5.49955 5.31289 5.12946 4.94929 4.77239 4.59879 4.42854 4.26167 4.09823 3.93828 3.78189 3.6291 3.48 3.33466 3.19316 3.05557 2.92198 2.79249 2.66717 2.54612 2.42944 2.31722 2.20956 2.10654 2.00827 1.91484 1.82634 1.74287 1.66451 1.59135 1.52346 1.46093 1.40384 1.35223 1.30619 1.26575 1.23098 1.20191 1.17856 1.16098 1.14917 1.14315 1.14007 1.13708 1.13419 1.13139 1.12868 1.12605 1.12349 1.12102 1.11861 1.11628 1.11402 1.11182 1.10968 1.10761 1.10559 1.10363 1.10172 1.09986 1.09805 1.0963 1.09743 1.10428 1.11684 1.13508 1.15897 1.18848 1.22355 1.26412 1.31015 1.36155 1.41825 1.48017 1.54723 1.61932 1.69637 1.77825 1.86488 1.95615 2.05195 2.15217 2.2567 2.36543 2.47825 2.59505 2.71571 2.84012 2.96819 3.09979 3.23482 3.37318 3.51476 3.65946 3.80719 3.95784 4.11132 4.26754 4.42641 4.58785 4.75176 4.91806 5.08669 5.25755 5.43057 5.60569 5.78283 5.96192 6.1429 6.3257 6.51027 6.69655 6.88447 7.07399 7.26505 7.4576 7.65159 7.84698 8.04372 8.24176 8.44106 8.64159 8.8433 9.04616 9.25013 9.45517 9.66125 9.86834 10.0764 10.2854 10.4954 10.7062 10.9179 11.1304 11.3437 11.5578 11.7727 11.9884 12.2047 12.4218 12.6395 12.8579 13.0769 13.2966 13.5168 13.7377 13.9591 14.1811 14.4036 14.6266 14.8502 15.0743 