# vtk DataFile Version 2.0
2D Surface
ASCII
DATASET RECTILINEAR_GRID
DIMENSIONS 201 201 1
X_COORDINATES 201 float
0
0.25
0.5
0.75
1
1.25
1.5
1.75
2
2.25
2.5
2.75
3
3.25
3.5
3.75
4
4.25
4.5
4.75
5
5.25
5.5
5.75
6
6.25
6.5
6.75
7
7.25
7.5
7.75
8
8.25
8.5
8.75
9
9.25
9.5
9.75
10
10.25
10.5
10.75
11
11.25
11.5
11.75
12
12.25
12.5
12.75
13
13.25
13.5
13.75
14
14.25
14.5
14.75
15
15.25
15.5
15.75
16
16.25
16.5
16.75
17
17.25
17.5
17.75
18
18.25
18.5
18.75
19
19.25
19.5
19.75
20
20.25
20.5
20.75
21
21.25
21.5
21.75
22
22.25
22.5
22.75
23
23.25
23.5
23.75
24
24.25
24.5
24.75
25
25.25
25.5
25.75
26
26.25
26.5
26.75
27
27.25
27.5
27.75
28
28.25
28.5
28.75
29
29.25
29.5
29.75
30
30.25
30.5
30.75
31
31.25
31.5
31.75
32
32.25
32.5
32.75
33
33.25
33.5
33.75
34
34.25
34.5
34.75
35
35.25
35.5
35.75
36
36.25
36.5
36.75
37
37.25
37.5
37.75
38
38.25
38.5
38.75
39
39.25
39.5
39.75
40
40.25
40.5
40.75
41
41.25
41.5
41.75
42
42.25
42.5
42.75
43
43.25
43.5
43.75
44
44.25
44.5
44.75
45
45.25
45.5
45.75
46
46.25
46.5
46.75
47
47.25
47.5
47.75
48
48.25
48.5
48.75
49
49.25
49.5
49.75
50
Y_COORDINATES 201 float
0
0.25
0.5
0.75
1
1.25
1.5
1.75
2
2.25
2.5
2.75
3
3.25
3.5
3.75
4
4.25
4.5
4.75
5
5.25
5.5
5.75
6
6.25
6.5
6.75
7
7.25
7.5
7.75
8
8.25
8.5
8.75
9
9.25
9.5
9.75
10
10.25
10.5
10.75
11
11.25
11.5
11.75
12
12.25
12.5
12.75
13
13.25
13.5
13.75
14
14.25
14.5
14.75
15
15.25
15.5
15.75
16
16.25
16.5
16.75
17
17.25
17.5
17.75
18
18.25
18.5
18.75
19
19.25
19.5
19.75
20
20.25
20.5
20.75
21
21.25
21.5
21.75
22
22.25
22.5
22.75
23
23.25
23.5
23.75
24
24.25
24.5
24.75
25
25.25
25.5
25.75
26
26.25
26.5
26.75
27
27.25
27.5
27.75
28
28.25
28.5
28.75
29
29.25
29.5
29.75
30
30.25
30.5
30.75
31
31.25
31.5
31.75
32
32.25
32.5
32.75
33
33.25
33.5
33.75
34
34.25
34.5
34.75
35
35.25
35.5
35.75
36
36.25
36.5
36.75
37
37.25
37.5
37.75
38
38.25
38.5
38.75
39
39.25
39.5
39.75
40
40.25
40.5
40.75
41
41.25
41.5
41.75
42
42.25
42.5
42.75
43
43.25
43.5
43.75
44
44.25
44.5
44.75
45
45.25
45.5
45.75
46
46.25
46.5
46.75
47
47.25
47.5
47.75
48
48.25
48.5
48.75
49
49.25
49.5
49.75
50
Z_COORDINATES 1 float
0
POINT_DATA 40401
SCALARS SDValues float
LOOKUP_TABLE default
39.5224 14.3532 11.9381 11.5321 11.2718 11.0448 10.8296 10.6202 10.4139 10.2099 10.0076 9.80663 9.60698 9.4085 9.21117 9.01495 8.81984 8.62584 8.43297 8.24123 8.05065 7.86124 7.67304 7.48606 7.30033 7.11589 6.93275 6.75096 6.57055 6.39154 6.21398 6.0379 5.86333 5.69031 5.51889 5.34909 5.18097 5.01457 4.84991 4.68706 4.52606 4.36694 4.20977 4.05457 3.90142 3.75034 3.6014 3.45465 3.31013 3.16791 3.02803 2.89056 2.75554 2.62303 2.49309 2.36578 2.24116 2.11928 2.0002 1.88399 1.7707 1.66039 1.55312 1.44896 1.34795 1.25016 1.15565 1.06448 0.976694 0.892359 0.811528 0.734255 0.660592 0.590591 0.5243 0.461768 0.403041 0.348161 0.297171 0.25011 0.207013 0.167916 0.132848 0.101838 0.0749104 0.0520879 0.0333889 0.0188286 0.0084193 0.00216947 8.43921e-05 8.25264e-05 8.07263e-05 7.89904e-05 7.72951e-05 7.56832e-05 7.41099e-05 7.25741e-05 7.10965e-05 6.96549e-05 6.82485e-05 6.68974e-05 6.56e-05 6.43154e-05 6.3083e-05 6.18822e-05 6.07122e-05 5.95727e-05 5.8463e-05 5.74014e-05 5.63683e-05 0.00213854 0.00838539 0.0187917 0.0333489 0.0520448 0.0748641 0.101788 0.132795 0.16786 0.206954 0.250047 0.297104 0.348091 0.402966 0.46169 0.524218 0.590504 0.660502 0.73416 0.811429 0.892255 0.976585 1.06436 1.15553 1.25004 1.34782 1.44882 1.55298 1.66024 1.77054 1.88383 2.00003 2.1191 2.24097 2.36559 2.49289 2.62282 2.75531 2.89032 3.02779 3.16765 3.30986 3.45436 3.6011 3.75003 3.90109 4.05423 4.2094 4.36656 4.52565 4.68663 4.84946 5.01408 5.18046 5.34855 5.51831 5.6897 5.86267 6.03719 6.21323 6.39073 6.56968 6.75002 6.93173 7.11478 7.29913 7.48474 7.67159 7.85965 8.04888 8.23927 8.43077 8.62337 8.81703 9.01174 9.20746 9.40417 9.60185 9.80047 10 10.2005 10.4018 10.604 10.807 11.0108 11.2155 11.4209 11.6271 11.834 12.0417 
39.3845 14.2143 11.7981 11.3909 11.1296 10.9014 10.6851 10.4745 10.2671 10.0619 9.85836 9.65623 9.45535 9.25564 9.05706 8.85957 8.66318 8.46789 8.27371 8.08065 7.88873 7.69798 7.50841 7.32005 7.13294 6.94709 6.76253 6.57931 6.39745 6.21698 6.03795 5.86038 5.68431 5.50979 5.33684 5.16551 4.99585 4.82789 4.66167 4.49725 4.33467 4.17396 4.01519 3.8584 3.70363 3.55095 3.40039 3.25203 3.10589 2.96205 2.82056 2.68147 2.54484 2.41073 2.2792 2.1503 2.0241 1.90066 1.78003 1.66228 1.54747 1.43566 1.32692 1.2213 1.11887 1.01968 0.923804 0.831293 0.74221 0.656613 0.574558 0.496103 0.421303 0.35021 0.282877 0.219353 0.159687 0.103923 0.0521059 0.00427589 -0.0395287 -0.0792723 -0.114923 -0.14645 -0.173828 -0.197034 -0.216048 -0.230854 -0.24144 -0.247795 -0.249916 -0.249917 -0.249919 -0.249921 -0.249923 -0.249924 -0.249926 -0.249927 -0.249929 -0.24993 -0.249932 -0.249933 -0.249934 -0.249936 -0.249937 -0.249938 -0.249939 -0.24994 -0.249942 -0.249943 -0.249944 -0.247826 -0.241473 -0.230891 -0.216088 -0.197077 -0.173874 -0.146499 -0.114975 -0.0793285 -0.0395883 0.00421276 0.0520391 0.103853 0.159612 0.219275 0.282795 0.350124 0.421212 0.496008 0.574459 0.656508 0.742101 0.831179 0.923684 1.01956 1.11874 1.22116 1.32678 1.43552 1.54732 1.66212 1.77986 1.90048 2.02391 2.15011 2.27899 2.41052 2.54462 2.68124 2.82031 2.9618 3.10562 3.25174 3.4001 3.55064 3.7033 3.85805 4.01482 4.17358 4.33426 4.49682 4.66122 4.82741 4.99534 5.16497 5.33626 5.50917 5.68365 5.85967 6.03719 6.21617 6.39658 6.57837 6.76151 6.94598 7.13173 7.31874 7.50697 7.69639 7.88697 8.07869 8.27152 8.46542 8.66038 8.85636 9.05335 9.25131 9.45022 9.65007 9.85082 10.0525 10.255 10.4583 10.6625 10.8675 11.0732 11.2798 11.487 11.6951 11.9038 
31.6742 21.6511 15.1801 12.89 11.896 11.3275 10.9289 10.61 10.333 10.0805 9.84319 9.61601 9.39596 9.18116 8.97042 8.76292 8.55814 8.35569 8.1553 7.95679 7.76003 7.56491 7.37138 7.17937 6.98888 6.79987 6.61235 6.42632 6.24178 6.05875 5.87724 5.69728 5.5189 5.34211 5.16696 4.99347 4.82169 4.65164 4.48337 4.31692 4.15233 3.98964 3.8289 3.67016 3.51347 3.35886 3.20641 3.05615 2.90814 2.76244 2.6191 2.47817 2.33972 2.20381 2.07048 1.93981 1.81186 1.68668 1.56433 1.44489 1.32841 1.21496 1.1046 0.997389 0.893396 0.792683 0.695313 0.601347 0.510848 0.423875 0.340489 0.260748 0.184709 0.112428 0.043958 -0.0206479 -0.0813399 -0.138071 -0.190794 -0.239469 -0.284053 -0.324511 -0.360809 -0.392914 -0.4208 -0.444443 -0.463822 -0.478921 -0.489725 -0.496225 -0.498416 -0.498451 -0.498485 -0.498517 -0.498549 -0.498579 -0.498609 -0.498638 -0.498665 -0.498692 -0.498719 -0.498744 -0.498769 -0.498792 -0.498816 -0.498838 -0.49886 -0.498882 -0.498902 -0.498922 -0.498942 -0.496806 -0.490361 -0.479614 -0.464573 -0.445253 -0.421669 -0.393844 -0.3618 -0.325566 -0.285173 -0.240654 -0.192048 -0.139393 -0.0827343 -0.0221158 0.0424144 0.110806 0.183007 0.258963 0.338618 0.421915 0.508796 0.5992 0.693067 0.790334 0.89094 0.99482 1.10191 1.21215 1.32548 1.44183 1.56113 1.68333 1.80835 1.93615 2.06665 2.19979 2.33552 2.47377 2.61448 2.7576 2.90307 3.05082 3.20081 3.35298 3.50728 3.66365 3.82204 3.9824 4.14469 4.30885 4.47483 4.64259 4.81209 4.98327 5.15611 5.33055 5.50655 5.68408 5.86309 6.04355 6.22542 6.40866 6.59324 6.77913 6.96629 7.1547 7.34431 7.53509 7.72703 7.92009 8.11423 8.30945 8.5057 8.70296 8.90121 9.10042 9.30057 9.50163 9.70359 9.90642 10.1101 10.3146 10.5199 10.7261 10.9329 11.1406 11.3489 11.558 11.7678 
29.5131 23.5419 18.2124 15.0663 13.3129 12.2603 11.5586 11.0433 10.6337 10.2879 9.9828 9.70479 9.44563 9.20006 8.96462 8.73695 8.51543 8.29888 8.08646 7.87757 7.67174 7.46863 7.26798 7.06958 6.8733 6.67901 6.48663 6.29609 6.10737 5.92041 5.73521 5.55175 5.37004 5.19008 5.01188 4.83547 4.66085 4.48806 4.31713 4.14809 3.98097 3.81581 3.65265 3.49154 3.33251 3.17562 3.02091 2.86843 2.71823 2.57036 2.42489 2.28186 2.14133 2.00337 1.86802 1.73536 1.60543 1.47831 1.35405 1.23273 1.1144 0.999123 0.886972 0.77801 0.672301 0.569909 0.4709 0.375337 0.283284 0.194803 0.109957 0.0288065 -0.0485901 -0.122175 -0.191891 -0.257685 -0.319505 -0.3773 -0.431024 -0.480632 -0.526082 -0.567336 -0.604357 -0.637113 -0.665576 -0.68972 -0.709525 -0.724971 -0.736045 -0.742739 -0.745044 -0.745153 -0.745258 -0.74536 -0.745459 -0.745555 -0.745647 -0.745737 -0.745824 -0.745908 -0.74599 -0.74607 -0.746147 -0.746221 -0.746294 -0.746365 -0.746433 -0.7465 -0.746565 -0.746628 -0.746689 -0.744556 -0.738038 -0.72714 -0.711874 -0.692252 -0.668294 -0.640021 -0.607458 -0.570635 -0.529584 -0.484341 -0.434945 -0.381439 -0.323867 -0.262277 -0.196719 -0.127247 -0.0539137 0.0232232 0.104106 0.188674 0.276866 0.368621 0.463874 0.562561 0.664617 0.769978 0.878576 0.990347 1.10522 1.22314 1.34403 1.46783 1.59447 1.72389 1.85603 1.99082 2.12819 2.2681 2.41047 2.55524 2.70237 2.85178 3.00342 3.15724 3.31318 3.47119 3.63121 3.7932 3.9571 4.12286 4.29044 4.45979 4.63086 4.80361 4.978 5.15398 5.3315 5.51054 5.69105 5.873 6.05634 6.24104 6.42706 6.61438 6.80295 6.99275 7.18374 7.3759 7.56919 7.76358 7.95905 8.15557 8.35311 8.55164 8.75115 8.95161 9.15299 9.35528 9.55844 9.76245 9.96731 10.173 10.3794 10.5867 10.7947 11.0034 11.2129 11.4231 11.6339 
28.5267 24.2614 20.0427 16.9247 14.8168 13.3987 12.4077 11.6775 11.1096 10.646 10.2517 9.90499 9.59189 9.30327 9.03292 8.77655 8.5311 8.29437 8.06475 7.84102 7.62228 7.40783 7.19714 6.98978 6.78544 6.58385 6.38482 6.18819 5.99383 5.80165 5.61158 5.42356 5.23754 5.05352 4.87146 4.69136 4.51322 4.33706 4.16287 3.99069 3.82053 3.65242 3.4864 3.3225 3.16075 3.00119 2.84388 2.68885 2.53614 2.38583 2.23794 2.09254 1.94968 1.80943 1.67182 1.53694 1.40483 1.27557 1.1492 1.0258 0.905436 0.788166 0.674059 0.56318 0.455595 0.351372 0.250576 0.153274 0.0595294 -0.0305918 -0.117026 -0.199711 -0.278586 -0.353589 -0.424664 -0.491753 -0.554803 -0.613763 -0.668582 -0.719213 -0.765615 -0.807746 -0.845568 -0.879049 -0.908157 -0.932868 -0.953158 -0.969009 -0.980406 -0.987339 -0.989803 -0.990027 -0.990243 -0.990453 -0.990656 -0.990853 -0.991043 -0.991228 -0.991407 -0.99158 -0.991749 -0.991912 -0.992071 -0.992224 -0.992374 -0.992519 -0.99266 -0.992797 -0.992931 -0.99306 -0.993187 -0.991078 -0.984503 -0.97347 -0.95799 -0.938076 -0.913748 -0.885029 -0.851947 -0.814531 -0.772816 -0.72684 -0.676645 -0.622273 -0.563774 -0.501196 -0.434593 -0.36402 -0.289533 -0.211193 -0.129059 -0.043196 0.0463339 0.139465 0.236131 0.336265 0.439799 0.546666 0.656797 0.770124 0.886579 1.00609 1.1286 1.25402 1.38231 1.51338 1.64718 1.78363 1.92268 2.06426 2.20831 2.35476 2.50356 2.65465 2.80796 2.96345 3.12105 3.28071 3.44238 3.60601 3.77154 3.93892 4.10811 4.27905 4.45171 4.62603 4.80197 4.9795 5.15856 5.33911 5.52113 5.70456 5.88938 6.07554 6.26301 6.45175 6.64174 6.83293 7.02531 7.21883 7.41347 7.6092 7.80599 8.00381 8.20264 8.40245 8.60322 8.80492 9.00753 9.21103 9.41539 9.62059 9.82661 10.0334 10.241 10.4494 10.6585 10.8684 11.0789 11.2901 11.5021 
27.93 24.5945 21.1505 18.306 16.1338 14.5237 13.325 12.4115 11.6929 11.1084 10.6176 10.1935 9.81785 9.47822 9.16582 8.8744 8.59946 8.33767 8.08655 7.84423 7.60928 7.38057 7.15725 6.93863 6.72418 6.51346 6.30613 6.10191 5.90058 5.70196 5.50591 5.31231 5.12107 4.93213 4.74543 4.56094 4.37862 4.19846 4.02045 3.8446 3.67091 3.49939 3.33007 3.16297 2.99811 2.83554 2.67528 2.51737 2.36187 2.2088 2.05823 1.9102 1.76476 1.62197 1.48188 1.34456 1.21006 1.07845 0.949779 0.824121 0.701539 0.582098 0.465864 0.352906 0.243289 0.137082 0.0343516 -0.064834 -0.160408 -0.252304 -0.340456 -0.424801 -0.505273 -0.581812 -0.654358 -0.72285 -0.787235 -0.847458 -0.903467 -0.955214 -1.00265 -1.04574 -1.08445 -1.11873 -1.14855 -1.17389 -1.19473 -1.21104 -1.22281 -1.23003 -1.2327 -1.23308 -1.23345 -1.2338 -1.23415 -1.23448 -1.2348 -1.23512 -1.23542 -1.23571 -1.236 -1.23628 -1.23654 -1.23681 -1.23706 -1.23731 -1.23754 -1.23778 -1.238 -1.23822 -1.23844 -1.23637 -1.22976 -1.21861 -1.20292 -1.18272 -1.15803 -1.12887 -1.09526 -1.05725 -1.01487 -0.968147 -0.917139 -0.861888 -0.802445 -0.738861 -0.671192 -0.599497 -0.523833 -0.444265 -0.360856 -0.273671 -0.182777 -0.0882426 0.00986427 0.111473 0.216514 0.324917 0.436609 0.551521 0.669582 0.79072 0.914865 1.04195 1.1719 1.30465 1.44013 1.57828 1.71902 1.8623 2.00804 2.1562 2.30669 2.45947 2.61448 2.77165 2.93093 3.09226 3.25559 3.42087 3.58804 3.75705 3.92786 4.10041 4.27466 4.45056 4.62807 4.80715 4.98775 5.16983 5.35335 5.53828 5.72457 5.9122 6.10111 6.29129 6.48269 6.67529 6.86904 7.06393 7.25992 7.45699 7.65509 7.85422 8.05434 8.25542 8.45744 8.66038 8.86422 9.06892 9.27447 9.48085 9.68804 9.89601 10.1048 10.3142 10.5245 10.7354 10.947 11.1593 11.3723 
27.5083 24.7562 21.8535 19.3051 17.2038 15.5303 14.2114 13.1657 12.3233 11.6302 11.047 10.5453 10.1047 9.7105 9.35213 9.02176 8.71358 8.42323 8.1474 7.88356 7.62972 7.38435 7.14623 6.91438 6.68804 6.46657 6.24948 6.03634 5.82682 5.62065 5.4176 5.21749 5.02018 4.82553 4.63346 4.4439 4.25677 4.07203 3.88966 3.70963 3.53193 3.35656 3.18353 3.01284 2.84451 2.67857 2.51503 2.35394 2.19534 2.03925 1.88572 1.7348 1.58653 1.44098 1.29818 1.15821 1.02111 0.886946 0.755782 0.627679 0.502701 0.380916 0.262389 0.147188 0.0353819 -0.0729613 -0.177773 -0.278984 -0.376526 -0.470331 -0.560331 -0.64646 -0.728652 -0.806844 -0.880973 -0.950979 -1.0168 -1.07839 -1.13568 -1.18864 -1.23721 -1.28134 -1.321 -1.35615 -1.38676 -1.4128 -1.43424 -1.45107 -1.46327 -1.47083 -1.47374 -1.47432 -1.47487 -1.47541 -1.47593 -1.47644 -1.47693 -1.4774 -1.47786 -1.47831 -1.47874 -1.47916 -1.47957 -1.47997 -1.48035 -1.48073 -1.48109 -1.48144 -1.48179 -1.48212 -1.48244 -1.48045 -1.47381 -1.46255 -1.44667 -1.4262 -1.40114 -1.37154 -1.33741 -1.29879 -1.25573 -1.20825 -1.15642 -1.10027 -1.03987 -0.97526 -0.906503 -0.833662 -0.756798 -0.675976 -0.591264 -0.502729 -0.410443 -0.314475 -0.214897 -0.111784 -0.00520596 0.104762 0.218045 0.334572 0.454267 0.577059 0.702873 0.831639 0.963284 1.09774 1.23493 1.37479 1.51725 1.66225 1.80972 1.95959 2.11181 2.2663 2.42301 2.58189 2.74286 2.90588 3.07088 3.23783 3.40665 3.5773 3.74974 3.92391 4.09976 4.27726 4.45634 4.63698 4.81912 5.00273 5.18777 5.37419 5.56197 5.75105 5.94142 6.13303 6.32585 6.51984 6.71498 6.91123 7.10857 7.30697 7.50639 7.70682 7.90822 8.11057 8.31385 8.51802 8.72308 8.92898 9.13572 9.34328 9.55162 9.76074 9.9706 10.1812 10.3925 10.6045 10.8172 11.0306 11.2446 
27.1802 24.8277 22.3175 20.0314 18.0502 16.3884 15.017 13.889 12.9556 12.1741 11.5101 10.9368 10.4336 9.98532 9.58012 9.20921 8.86585 8.54486 8.24223 7.95481 7.68014 7.41627 7.16163 6.91496 6.67526 6.44169 6.21357 5.99036 5.77158 5.55688 5.34593 5.13847 4.9343 4.73323 4.53512 4.33986 4.14734 3.95748 3.77024 3.58556 3.40341 3.22377 3.04662 2.87197 2.69982 2.53017 2.36305 2.19848 2.03648 1.87709 1.72035 1.56629 1.41496 1.26641 1.12069 0.977851 0.837948 0.701042 0.567192 0.436461 0.308912 0.184611 0.0636251 -0.0539779 -0.168129 -0.278761 -0.3858 -0.48918 -0.588828 -0.684675 -0.776653 -0.864692 -0.948726 -1.02869 -1.10451 -1.17614 -1.24351 -1.30656 -1.36524 -1.4195 -1.46928 -1.51454 -1.55524 -1.59134 -1.6228 -1.6496 -1.67172 -1.68912 -1.7018 -1.70974 -1.71293 -1.71375 -1.71453 -1.71529 -1.71603 -1.71674 -1.71743 -1.7181 -1.71875 -1.71938 -1.71999 -1.72059 -1.72116 -1.72172 -1.72226 -1.72279 -1.7233 -1.7238 -1.72428 -1.72475 -1.72521 -1.7233 -1.71666 -1.7053 -1.68924 -1.66849 -1.64308 -1.61303 -1.57837 -1.53915 -1.49539 -1.44716 -1.39448 -1.33742 -1.27604 -1.21038 -1.14051 -1.0665 -0.988405 -0.906303 -0.820258 -0.730345 -0.636635 -0.539203 -0.438125 -0.333474 -0.225329 -0.113765 0.00114127 0.119313 0.240674 0.365149 0.492662 0.62314 0.756507 0.892691 1.03162 1.17322 1.31743 1.46417 1.61339 1.765 1.91895 2.07518 2.23362 2.39421 2.55689 2.72161 2.8883 3.05693 3.22742 3.39973 3.5738 3.7496 3.92706 4.10615 4.28682 4.46902 4.65272 4.83786 5.02441 5.21234 5.4016 5.59215 5.78397 5.97701 6.17124 6.36664 6.56316 6.76078 6.95946 7.15919 7.35993 7.56165 7.76433 7.96795 8.17247 8.37787 8.58414 8.79125 8.99917 9.20789 9.41739 9.62764 9.83863 10.0503 10.2627 10.4758 10.6896 10.904 11.119 
26.9085 24.8465 22.6315 20.5663 18.7154 17.1035 15.7245 14.554 13.5606 12.7129 11.9831 11.3477 10.788 10.2888 9.83834 9.42734 9.04852 8.69614 8.36568 8.05351 7.75678 7.47315 7.20076 6.93808 6.68387 6.43711 6.19695 5.9627 5.73378 5.5097 5.29005 5.07451 4.86279 4.65465 4.4499 4.24837 4.04993 3.85446 3.66188 3.4721 3.28509 3.10078 2.91916 2.74019 2.56388 2.39021 2.2192 2.05086 1.8852 1.72225 1.56204 1.40461 1.24999 1.09822 0.94936 0.803451 0.660547 0.520707 0.383986 0.250447 0.120153 -0.00683208 -0.13044 -0.250605 -0.367257 -0.480325 -0.589739 -0.695428 -0.797319 -0.895343 -0.989428 -1.0795 -1.1655 -1.24735 -1.32499 -1.39835 -1.46737 -1.53199 -1.59215 -1.64779 -1.69888 -1.74535 -1.78717 -1.82429 -1.85668 -1.88431 -1.90716 -1.92519 -1.9384 -1.94677 -1.9503 -1.95138 -1.95244 -1.95346 -1.95444 -1.9554 -1.95632 -1.95722 -1.95809 -1.95893 -1.95975 -1.96055 -1.96132 -1.96207 -1.96279 -1.9635 -1.96419 -1.96485 -1.9655 -1.96613 -1.96675 -1.96494 -1.95831 -1.94688 -1.93064 -1.90962 -1.88385 -1.85335 -1.81816 -1.77832 -1.73386 -1.68485 -1.63131 -1.57332 -1.51093 -1.4442 -1.3732 -1.29799 -1.21864 -1.13522 -1.04782 -0.956494 -0.861328 -0.7624 -0.659786 -0.553567 -0.44382 -0.330627 -0.214066 -0.0942168 0.0288418 0.155031 0.284274 0.416492 0.55161 0.689552 0.830245 0.973615 1.11959 1.2681 1.41908 1.57246 1.72817 1.88615 2.04633 2.20866 2.37307 2.5395 2.7079 2.87821 3.05038 3.22436 3.40009 3.57752 3.7566 3.9373 4.11955 4.30333 4.48858 4.67526 4.86333 5.05276 5.24351 5.43553 5.6288 5.82327 6.01892 6.21571 6.41361 6.61259 6.81263 7.01368 7.21573 7.41874 7.6227 7.82757 8.03334 8.23997 8.44744 8.65574 8.86484 9.07472 9.28536 9.49675 9.70885 9.92165 10.1351 10.3493 10.5641 10.7795 10.9956 
26.6735 24.8321 22.8462 20.965 19.2389 17.6938 16.3344 15.15 14.1219 13.2284 12.4482 11.7621 11.1536 10.6087 10.1164 9.66733 9.25411 8.87074 8.51239 8.17512 7.85575 7.55168 7.26077 6.98128 6.71176 6.45101 6.19803 5.95199 5.71219 5.47803 5.24904 5.02479 4.80493 4.58916 4.37723 4.16894 3.9641 3.76256 3.56421 3.36895 3.17668 2.98735 2.8009 2.6173 2.43651 2.25853 2.08335 1.91096 1.74138 1.57462 1.41071 1.24967 1.09154 0.936343 0.784135 0.634958 0.488862 0.3459 0.206129 0.0696083 -0.0636017 -0.193436 -0.319828 -0.442711 -0.562014 -0.677668 -0.789601 -0.89774 -1.00201 -1.10235 -1.19867 -1.2909 -1.37899 -1.46285 -1.54241 -1.61761 -1.68839 -1.75467 -1.81641 -1.87355 -1.92603 -1.97379 -2.01681 -2.05503 -2.08842 -2.11695 -2.14058 -2.1593 -2.17309 -2.18194 -2.18584 -2.18724 -2.1886 -2.18991 -2.19118 -2.19242 -2.19361 -2.19477 -2.19589 -2.19698 -2.19803 -2.19906 -2.20005 -2.20102 -2.20195 -2.20286 -2.20375 -2.20461 -2.20545 -2.20626 -2.20705 -2.20537 -2.19878 -2.18727 -2.17086 -2.14958 -2.12345 -2.09251 -2.05677 -2.0163 -1.97113 -1.92132 -1.86691 -1.80796 -1.74454 -1.67672 -1.60455 -1.52811 -1.44748 -1.36272 -1.27392 -1.18115 -1.08449 -0.984033 -0.879851 -0.772027 -0.660645 -0.545788 -0.427538 -0.305977 -0.181188 -0.0532524 0.0777505 0.21174 0.348639 0.488368 0.630852 0.776016 0.923787 1.07409 1.22686 1.38202 1.53951 1.69926 1.86121 2.02529 2.19144 2.35961 2.52972 2.70174 2.8756 3.05125 3.22864 3.40772 3.58843 3.77073 3.95459 4.13994 4.32675 4.51497 4.70457 4.8955 5.08774 5.28123 5.47594 5.67185 5.86891 6.0671 6.26638 6.46672 6.6681 6.87048 7.07383 7.27813 7.48336 7.68949 7.89649 8.10434 8.31302 8.5225 8.73277 8.94381 9.15559 9.36809 9.5813 9.79519 10.0098 10.225 10.4408 10.6573 10.8744 
26.464 24.7959 22.9924 21.2649 19.6526 18.1794 16.8547 15.6757 14.6323 13.7102 12.8938 12.1681 11.5192 10.935 10.4053 9.92127 9.47574 9.06271 8.67721 8.31518 7.97321 7.64852 7.33878 7.04206 6.75675 6.48149 6.21514 5.95675 5.70552 5.46076 5.22188 4.98841 4.75991 4.53604 4.31648 4.10099 3.88934 3.68135 3.47685 3.27573 3.07787 2.88318 2.6916 2.50305 2.31751 2.13494 1.95532 1.77864 1.60489 1.43409 1.26625 1.10138 0.939524 0.780699 0.624949 0.472313 0.322839 0.176577 0.0335803 -0.106094 -0.242384 -0.375229 -0.504563 -0.630316 -0.752422 -0.870808 -0.985401 -1.09613 -1.20292 -1.30569 -1.40438 -1.49891 -1.5892 -1.67518 -1.75678 -1.83394 -1.90658 -1.97464 -2.03806 -2.09677 -2.15073 -2.19988 -2.24418 -2.28357 -2.31803 -2.34752 -2.37201 -2.39147 -2.4059 -2.41527 -2.41958 -2.42133 -2.42303 -2.42468 -2.42627 -2.42781 -2.4293 -2.43075 -2.43216 -2.43352 -2.43484 -2.43612 -2.43737 -2.43858 -2.43975 -2.44089 -2.442 -2.44308 -2.44413 -2.44515 -2.44614 -2.44461 -2.43805 -2.42648 -2.40992 -2.38838 -2.36189 -2.33049 -2.29421 -2.25309 -2.20719 -2.15656 -2.10126 -2.04133 -1.97686 -1.90791 -1.83455 -1.75685 -1.67489 -1.58876 -1.49853 -1.40428 -1.3061 -1.20407 -1.09828 -0.988819 -0.875765 -0.759208 -0.639234 -0.515927 -0.389374 -0.259658 -0.126862 0.00893105 0.147641 0.289186 0.43349 0.580475 0.730066 0.882188 1.03677 1.19374 1.35303 1.51457 1.6783 1.84415 2.01206 2.18197 2.35382 2.52756 2.70312 2.88046 3.05951 3.24024 3.42259 3.60651 3.79197 3.9789 4.16727 4.35704 4.54816 4.74061 4.93433 5.12929 5.32546 5.52279 5.72127 5.92085 6.12151 6.3232 6.52592 6.72961 6.93427 7.13986 7.34635 7.55373 7.76196 7.97102 8.1809 8.39156 8.60299 8.81517 9.02808 9.2417 9.456 9.67098 9.88661 10.1029 10.3198 10.5373 10.7554 
26.2733 24.7446 23.0896 21.4914 19.9808 18.5789 17.2964 16.1351 15.0902 14.1531 13.3127 12.5576 11.8767 11.2597 10.6976 10.1824 9.70736 9.26665 8.8554 8.46949 8.10548 7.76045 7.43196 7.11793 6.81663 6.52659 6.24656 5.97548 5.71244 5.45668 5.20753 4.96444 4.72692 4.49455 4.267 4.04394 3.82512 3.61033 3.39936 3.19207 2.98831 2.78797 2.59096 2.39721 2.20665 2.01923 1.83493 1.65372 1.47558 1.30052 1.12853 0.959641 0.793856 0.631208 0.471726 0.315449 0.162419 0.0126836 -0.133709 -0.2767 -0.416233 -0.552246 -0.684673 -0.81345 -0.938505 -1.05977 -1.17716 -1.29062 -1.40006 -1.50541 -1.60659 -1.70353 -1.79615 -1.88437 -1.96813 -2.04735 -2.12196 -2.1919 -2.25709 -2.31748 -2.37302 -2.42363 -2.46929 -2.50994 -2.54554 -2.57605 -2.60145 -2.62172 -2.63683 -2.64677 -2.65153 -2.65368 -2.65575 -2.65776 -2.65971 -2.66159 -2.66342 -2.66519 -2.66691 -2.66857 -2.67019 -2.67176 -2.67328 -2.67476 -2.6762 -2.6776 -2.67895 -2.68027 -2.68155 -2.6828 -2.68402 -2.68265 -2.67615 -2.66453 -2.64781 -2.62601 -2.59916 -2.5673 -2.53046 -2.48869 -2.44204 -2.39058 -2.33435 -2.27342 -2.20787 -2.13776 -2.06317 -1.98418 -1.90087 -1.81332 -1.72162 -1.62586 -1.52611 -1.42248 -1.31505 -1.2039 -1.08914 -0.970846 -0.849109 -0.724021 -0.595667 -0.464137 -0.329515 -0.191886 -0.0513344 0.0920576 0.23821 0.387043 0.53848 0.692444 0.848862 1.00766 1.16877 1.33213 1.49765 1.66529 1.83498 2.00665 2.18024 2.35571 2.53298 2.71202 2.89275 3.07514 3.25913 3.44468 3.63174 3.82026 4.0102 4.20151 4.39417 4.58811 4.78332 4.97975 5.17737 5.37614 5.57602 5.777 5.97902 6.18207 6.38612 6.59113 6.79708 7.00395 7.2117 7.42032 7.62977 7.84004 8.05111 8.26294 8.47553 8.68885 8.90288 9.1176 9.33299 9.54905 9.76573 9.98305 10.201 10.4195 10.6386 
26.0969 24.6828 23.1508 21.6624 20.2421 18.9079 17.6706 16.5342 15.4975 14.5556 13.701 12.9255 12.2202 11.5768 10.9875 10.4452 9.9438 9.47784 9.04266 8.63424 8.24913 7.88441 7.53756 7.20646 6.88927 6.58443 6.29061 6.00666 5.7316 5.46459 5.2049 4.95191 4.70507 4.46393 4.22807 3.99716 3.77089 3.54901 3.33129 3.11755 2.90763 2.70138 2.4987 2.29949 2.10368 1.91119 1.72199 1.53603 1.35329 1.17376 0.997438 0.824323 0.654427 0.487771 0.32438 0.164289 0.0075332 -0.145842 -0.295791 -0.442259 -0.58519 -0.724524 -0.860197 -0.992142 -1.12029 -1.24457 -1.36491 -1.48123 -1.59345 -1.7015 -1.80531 -1.90478 -1.99985 -2.09044 -2.17646 -2.25786 -2.33455 -2.40646 -2.47354 -2.5357 -2.5929 -2.64507 -2.69217 -2.73415 -2.77096 -2.80257 -2.82894 -2.85006 -2.86591 -2.87646 -2.88172 -2.88429 -2.88678 -2.88919 -2.89152 -2.89379 -2.89598 -2.8981 -2.90016 -2.90216 -2.9041 -2.90598 -2.90781 -2.90958 -2.91131 -2.91298 -2.91461 -2.91619 -2.91773 -2.91923 -2.92069 -2.9195 -2.91308 -2.90142 -2.88455 -2.86249 -2.83527 -2.80294 -2.76553 -2.72309 -2.67568 -2.62335 -2.56617 -2.50422 -2.43755 -2.36625 -2.2904 -2.21009 -2.12538 -2.03638 -1.94317 -1.84585 -1.7445 -1.63922 -1.5301 -1.41724 -1.30073 -1.18066 -1.05712 -0.930212 -0.800022 -0.666641 -0.530158 -0.39066 -0.248235 -0.102966 0.045064 0.195774 0.349083 0.504915 0.663194 0.823846 0.986798 1.15198 1.31933 1.48877 1.66025 1.83369 2.00905 2.18625 2.36525 2.54599 2.72841 2.91247 3.09811 3.28529 3.47395 3.66406 3.85557 4.04843 4.24262 4.43807 4.63477 4.83267 5.03173 5.23193 5.43322 5.63558 5.83897 6.04337 6.24875 6.45507 6.66231 6.87045 7.07945 7.2893 7.49997 7.71144 7.92369 8.13669 8.35042 8.56487 8.78001 8.99582 9.2123 9.42941 9.64715 9.8655 10.0844 10.3039 10.524 
25.9317 24.6136 23.185 21.7907 20.4503 19.1791 17.9872 16.8797 15.8576 14.9184 14.0575 13.2689 12.546 11.882 11.2704 10.7052 10.1808 9.69228 9.23528 8.80598 8.40104 8.01756 7.65306 7.30535 6.97258 6.65313 6.3456 6.04879 5.76165 5.48329 5.21292 4.94985 4.69351 4.44337 4.199 3.96 3.72605 3.49686 3.27216 3.05175 2.83543 2.62306 2.4145 2.20962 2.00834 1.81058 1.61627 1.42537 1.23784 1.05366 0.872817 0.695302 0.521121 0.350287 0.182821 0.0187498 -0.141893 -0.299067 -0.452727 -0.602825 -0.749304 -0.892107 -1.03117 -1.16643 -1.29781 -1.42524 -1.54866 -1.66798 -1.78312 -1.894 -2.00055 -2.10269 -2.20033 -2.29339 -2.38181 -2.46549 -2.54437 -2.61836 -2.68741 -2.75144 -2.8104 -2.86421 -2.91284 -2.95622 -2.99431 -3.02708 -3.0545 -3.07653 -3.09316 -3.10438 -3.11017 -3.1132 -3.11614 -3.11898 -3.12173 -3.1244 -3.12699 -3.12949 -3.13193 -3.13428 -3.13657 -3.1388 -3.14095 -3.14305 -3.14509 -3.14706 -3.14899 -3.15086 -3.15268 -3.15445 -3.15617 -3.15518 -3.14884 -3.13715 -3.12013 -3.09782 -3.07023 -3.03741 -2.99942 -2.95629 -2.90809 -2.85488 -2.79673 -2.73371 -2.6659 -2.59337 -2.51622 -2.43454 -2.3484 -2.25791 -2.16315 -2.06422 -1.96123 -1.85426 -1.74341 -1.62879 -1.51048 -1.38859 -1.26322 -1.13445 -1.00239 -0.867119 -0.728739 -0.587339 -0.443006 -0.295829 -0.145891 0.00672301 0.161932 0.319657 0.47982 0.642345 0.80716 0.974193 1.14338 1.31464 1.48792 1.66315 1.84028 2.01924 2.19997 2.38242 2.56654 2.75227 2.93957 3.12838 3.31866 3.51036 3.70344 3.89785 4.09356 4.29053 4.48871 4.68807 4.88858 5.0902 5.2929 5.49664 5.7014 5.90714 6.11383 6.32146 6.52999 6.73939 6.94964 7.16071 7.37259 7.58525 7.79867 8.01282 8.22769 8.44326 8.6595 8.8764 9.09395 9.31211 9.53089 9.75026 9.9702 10.1907 10.4118 
25.7758 24.539 23.1987 21.8857 20.616 19.4028 18.255 17.1783 16.1748 15.2437 14.3824 13.5868 12.852 12.1726 11.5433 10.9591 10.415 9.90665 9.4301 8.98175 8.55844 8.15737 7.7761 7.41248 7.06464 6.73094 6.40995 6.10043 5.80129 5.51159 5.2305 4.95729 4.69134 4.43209 4.17905 3.93182 3.69002 3.45334 3.22148 2.99422 2.77134 2.55265 2.33801 2.12729 1.92036 1.71715 1.51756 1.32155 1.12906 0.940059 0.754526 0.572446 0.393818 0.218648 0.0469485 -0.121256 -0.285937 -0.447059 -0.604581 -0.758454 -0.908626 -1.05504 -1.19763 -1.33634 -1.4711 -1.60182 -1.72845 -1.85089 -1.96908 -2.08293 -2.19235 -2.29727 -2.3976 -2.49327 -2.58418 -2.67026 -2.75143 -2.82762 -2.89874 -2.96474 -3.02554 -3.08109 -3.13132 -3.17618 -3.21563 -3.24963 -3.27815 -3.30115 -3.31861 -3.33053 -3.33689 -3.34042 -3.34384 -3.34715 -3.35035 -3.35346 -3.35647 -3.35939 -3.36222 -3.36497 -3.36763 -3.37022 -3.37274 -3.37518 -3.37755 -3.37986 -3.3821 -3.38428 -3.3864 -3.38846 -3.39046 -3.3897 -3.38345 -3.37174 -3.35458 -3.332 -3.30403 -3.27072 -3.23212 -3.18829 -3.13927 -3.08515 -3.02599 -2.96188 -2.89288 -2.8191 -2.74061 -2.65751 -2.5699 -2.47787 -2.38151 -2.28094 -2.17626 -2.06755 -1.95493 -1.8385 -1.71836 -1.59461 -1.46735 -1.33669 -1.20271 -1.06552 -0.925203 -0.781864 -0.635591 -0.486474 -0.334598 -0.180051 -0.0229147 0.136728 0.298799 0.463221 0.629919 0.798822 0.969857 1.14296 1.31806 1.49509 1.674 1.85472 2.0372 2.22137 2.40719 2.59461 2.78356 2.97401 3.1659 3.3592 3.55385 3.74981 3.94705 4.14552 4.34519 4.54602 4.74797 4.951 5.1551 5.36022 5.56633 5.77341 5.98142 6.19034 6.40014 6.6108 6.82229 7.03458 7.24766 7.4615 7.67608 7.89138 8.10737 8.32405 8.54138 8.75936 8.97797 9.19718 9.41698 9.63736 9.8583 10.0798 10.3018 
25.6276 24.4606 23.1963 21.9542 20.7475 19.5872 18.4816 17.4361 16.4535 15.5342 14.677 13.8791 13.1371 12.4468 11.8039 11.2043 10.6437 10.1183 9.62451 9.15904 8.71894 8.30158 7.90459 7.5259 7.16364 6.8162 6.48214 6.1602 5.84926 5.54835 5.25661 4.97328 4.6977 4.42929 4.16752 3.91196 3.66221 3.41791 3.17877 2.94451 2.71492 2.48978 2.26892 2.05219 1.83947 1.63065 1.42563 1.22435 1.02675 0.832774 0.642404 0.455612 0.27239 0.0927362 -0.0833397 -0.255821 -0.424683 -0.589896 -0.751418 -0.909205 -1.06321 -1.21337 -1.35963 -1.50193 -1.64019 -1.77434 -1.9043 -2.03001 -2.15137 -2.2683 -2.38072 -2.48855 -2.59169 -2.69007 -2.7836 -2.87219 -2.95577 -3.03424 -3.10755 -3.17561 -3.23835 -3.29571 -3.34763 -3.39406 -3.43494 -3.47024 -3.49991 -3.52393 -3.54228 -3.55495 -3.56192 -3.56598 -3.56991 -3.57372 -3.57741 -3.58098 -3.58444 -3.5878 -3.59106 -3.59423 -3.5973 -3.60028 -3.60317 -3.60598 -3.60871 -3.61137 -3.61395 -3.61646 -3.6189 -3.62128 -3.62359 -3.62306 -3.61692 -3.60519 -3.58789 -3.56504 -3.53668 -3.50287 -3.46365 -3.41908 -3.36922 -3.31416 -3.25396 -3.18871 -3.11849 -3.0434 -2.96353 -2.87898 -2.78984 -2.69623 -2.59823 -2.49597 -2.38954 -2.27905 -2.16462 -2.04633 -1.92431 -1.79866 -1.66947 -1.53686 -1.40093 -1.26178 -1.11949 -0.97418 -0.825932 -0.674841 -0.520997 -0.364488 -0.205398 -0.0438113 0.120192 0.286532 0.455134 0.625924 0.79883 0.973784 1.15072 1.32957 1.51027 1.69276 1.87699 2.0629 2.25043 2.43952 2.63014 2.82223 3.01574 3.21063 3.40685 3.60437 3.80313 4.00311 4.20425 4.40654 4.60992 4.81438 5.01987 5.22636 5.43382 5.64223 5.85155 6.06176 6.27282 6.48473 6.69744 6.91095 7.12522 7.34022 7.55596 7.77239 7.9895 8.20727 8.42569 8.64473 8.86439 9.08463 9.30545 9.52683 9.74875 9.9712 10.1942 