# vtk DataFile Version 2.0
2D Surface
ASCII
DATASET RECTILINEAR_GRID
DIMENSIONS 201 201 1
X_COORDINATES 201 float
0
0.25
0.5
0.75
1
1.25
1.5
1.75
2
2.25
2.5
2.75
3
3.25
3.5
3.75
4
4.25
4.5
4.75
5
5.25
5.5
5.75
6
6.25
6.5
6.75
7
7.25
7.5
7.75
8
8.25
8.5
8.75
9
9.25
9.5
9.75
10
10.25
10.5
10.75
11
11.25
11.5
11.75
12
12.25
12.5
12.75
13
13.25
13.5
13.75
14
14.25
14.5
14.75
15
15.25
15.5
15.75
16
16.25
16.5
16.75
17
17.25
17.5
17.75
18
18.25
18.5
18.75
19
19.25
19.5
19.75
20
20.25
20.5
20.75
21
21.25
21.5
21.75
22
22.25
22.5
22.75
23
23.25
23.5
23.75
24
24.25
24.5
24.75
25
25.25
25.5
25.75
26
26.25
26.5
26.75
27
27.25
27.5
27.75
28
28.25
28.5
28.75
29
29.25
29.5
29.75
30
30.25
30.5
30.75
31
31.25
31.5
31.75
32
32.25
32.5
32.75
33
33.25
33.5
33.75
34
34.25
34.5
34.75
35
35.25
35.5
35.75
36
36.25
36.5
36.75
37
37.25
37.5
37.75
38
38.25
38.5
38.75
39
39.25
39.5
39.75
40
40.25
40.5
40.75
41
41.25
41.5
41.75
42
42.25
42.5
42.75
43
43.25
43.5
43.75
44
44.25
44.5
44.75
45
45.25
45.5
45.75
46
46.25
46.5
46.75
47
47.25
47.5
47.75
48
48.25
48.5
48.75
49
49.25
49.5
49.75
50
Y_COORDINATES 201 float
0
0.25
0.5
0.75
1
1.25
1.5
1.75
2
2.25
2.5
2.75
3
3.25
3.5
3.75
4
4.25
4.5
4.75
5
5.25
5.5
5.75
6
6.25
6.5
6.75
7
7.25
7.5
7.75
8
8.25
8.5
8.75
9
9.25
9.5
9.75
10
10.25
10.5
10.75
11
11.25
11.5
11.75
12
12.25
12.5
12.75
13
13.25
13.5
13.75
14
14.25
14.5
14.75
15
15.25
15.5
15.75
16
16.25
16.5
16.75
17
17.25
17.5
17.75
18
18.25
18.5
18.75
19
19.25
19.5
19.75
20
20.25
20.5
20.75
21
21.25
21.5
21.75
22
22.25
22.5
22.75
23
23.25
23.5
23.75
24
24.25
24.5
24.75
25
25.25
25.5
25.75
26
26.25
26.5
26.75
27
27.25
27.5
27.75
28
28.25
28.5
28.75
29
29.25
29.5
29.75
30
30.25
30.5
30.75
31
31.25
31.5
31.75
32
32.25
32.5
32.75
33
33.25
33.5
33.75
34
34.25
34.5
34.75
35
35.25
35.5
35.75
36
36.25
36.5
36.75
37
37.25
37.5
37.75
38
38.25
38.5
38.75
39
39.25
39.5
39.75
40
40.25
40.5
40.75
41
41.25
41.5
41.75
42
42.25
42.5
42.75
43
43.25
43.5
43.75
44
44.25
44.5
44.75
45
45.25
45.5
45.75
46
46.25
46.5
46.75
47
47.25
47.5
47.75
48
48.25
48.5
48.75
49
49.25
49.5
49.75
50
Z_COORDINATES 1 float
0
POINT_DATA 40401
SCALARS SDValues float
LOOKUP_TABLE default
25.3553 25.179 25.0036 24.829 24.6554 24.4828 24.3111 24.1403 23.9706 23.8018 23.6341 23.4673 23.3017 23.137 22.9735 22.811 22.6497 22.4894 22.3303 22.1724 22.0156 21.86 21.7057 21.5525 21.4006 21.25 21.1006 20.9526 20.8058 20.6604 20.5164 20.3737 20.2324 20.0926 19.9541 19.8172 19.6816 19.5476 19.4151 19.2842 19.1548 19.0269 18.9007 18.7761 18.6531 18.5318 18.4121 18.2942 18.178 18.0635 17.9508 17.8399 17.7308 17.6236 17.5182 17.4146 17.313 17.2133 17.1155 17.0197 16.9258 16.834 16.7442 16.6564 16.5707 16.487 16.4055 16.3261 16.2488 16.1737 16.1008 16.03 15.9615 15.8952 15.8312 15.7694 15.7099 15.6527 15.5979 15.5453 15.4951 15.4472 15.4018 15.3587 15.318 15.2797 15.2438 15.2104 15.1794 15.1508 15.1247 15.101 15.0799 15.0612 15.045 15.0312 15.02 15.0112 15.005 15.0012 15 15.0012 15.005 15.0112 15.02 15.0312 15.045 15.0612 15.0799 15.101 15.1247 15.1508 15.1794 15.2104 15.2438 15.2797 15.318 15.3587 15.4018 15.4472 15.4951 15.5453 15.5979 15.6527 15.7099 15.7694 15.8312 15.8952 15.9615 16.03 16.1008 16.1737 16.2488 16.3261 16.4055 16.487 16.5707 16.6564 16.7442 16.834 16.9258 17.0197 17.1155 17.2133 17.313 17.4146 17.5182 17.6236 17.7308 17.8399 17.9508 18.0635 18.178 18.2942 18.4121 18.5318 18.6531 18.7761 18.9007 19.0269 19.1548 19.2842 19.4151 19.5476 19.6816 19.8172 19.9541 20.0926 20.2324 20.3737 20.5164 20.6604 20.8058 20.9526 21.1006 21.25 21.4006 21.5525 21.7057 21.86 22.0156 22.1724 22.3303 22.4894 22.6497 22.811 22.9735 23.137 23.3017 23.4673 23.6341 23.8018 23.9706 24.1403 24.3111 24.4828 24.6554 24.829 25.0036 25.179 25.3553 
25.179 25.0018 24.8255 24.65 24.4755 24.302 24.1293 23.9577 23.787 23.6173 23.4487 23.281 23.1144 22.9488 22.7843 22.6209 22.4586 22.2974 22.1374 21.9785 21.8208 21.6643 21.5089 21.3548 21.202 21.0504 20.9 20.751 20.6033 20.4569 20.3119 20.1683 20.026 19.8852 19.7458 19.6079 19.4714 19.3364 19.203 19.071 18.9407 18.8119 18.6847 18.5591 18.4352 18.313 18.1924 18.0736 17.9564 17.8411 17.7275 17.6157 17.5057 17.3975 17.2913 17.1869 17.0844 16.9838 16.8852 16.7885 16.6939 16.6012 16.5106 16.4221 16.3356 16.2512 16.1689 16.0888 16.0108 15.935 15.8614 15.79 15.7209 15.6539 15.5893 15.5269 15.4669 15.4092 15.3537 15.3007 15.25 15.2017 15.1558 15.1122 15.0711 15.0325 14.9962 14.9625 14.9312 14.9023 14.8759 14.8521 14.8307 14.8118 14.7954 14.7815 14.7702 14.7614 14.755 14.7513 14.75 14.7513 14.755 14.7614 14.7702 14.7815 14.7954 14.8118 14.8307 14.8521 14.8759 14.9023 14.9312 14.9625 14.9962 15.0325 15.0711 15.1122 15.1558 15.2017 15.25 15.3007 15.3537 15.4092 15.4669 15.5269 15.5893 15.6539 15.7209 15.79 15.8614 15.935 16.0108 16.0888 16.1689 16.2512 16.3356 16.4221 16.5106 16.6012 16.6939 16.7885 16.8852 16.9838 17.0844 17.1869 17.2913 17.3975 17.5057 17.6157 17.7275 17.8411 17.9564 18.0736 18.1924 18.313 18.4352 18.5591 18.6847 18.8119 18.9407 19.071 19.203 19.3364 19.4714 19.6079 19.7458 19.8852 20.026 20.1683 20.3119 20.4569 20.6033 20.751 20.9 21.0504 21.202 21.3548 21.5089 21.6643 21.8208 21.9785 22.1374 22.2974 22.4586 22.6209 22.7843 22.9488 23.1144 23.281 23.4487 23.6173 23.787 23.9577 24.1293 24.302 24.4755 24.65 24.8255 25.0018 25.179 
25.0036 24.8255 24.6482 24.4719 24.2965 24.122 23.9485 23.7759 23.6043 23.4337 23.2641 23.0955 22.928 22.7614 22.596 22.4317 22.2684 22.1063 21.9453 21.7854 21.6267 21.4692 21.3129 21.1579 21.004 20.8515 20.7002 20.5502 20.4015 20.2541 20.1081 19.9635 19.8203 19.6785 19.5381 19.3992 19.2617 19.1258 18.9914 18.8585 18.7272 18.5974 18.4693 18.3428 18.2179 18.0947 17.9732 17.8534 17.7354 17.6191 17.5045 17.3918 17.2809 17.1719 17.0647 16.9595 16.8561 16.7547 16.6552 16.5577 16.4622 16.3688 16.2774 16.188 16.1008 16.0156 15.9326 15.8517 15.773 15.6965 15.6223 15.5502 15.4804 15.4128 15.3476 15.2846 15.224 15.1657 15.1098 15.0562 15.005 14.9562 14.9098 14.8659 14.8244 14.7853 14.7487 14.7146 14.683 14.6539 14.6272 14.6031 14.5815 14.5624 14.5459 14.5319 14.5204 14.5115 14.5051 14.5013 14.5 14.5013 14.5051 14.5115 14.5204 14.5319 14.5459 14.5624 14.5815 14.6031 14.6272 14.6539 14.683 14.7146 14.7487 14.7853 14.8244 14.8659 14.9098 14.9562 15.005 15.0562 15.1098 15.1657 15.224 15.2846 15.3476 15.4128 15.4804 15.5502 15.6223 15.6965 15.773 15.8517 15.9326 16.0156 16.1008 16.188 16.2774 16.3688 16.4622 16.5577 16.6552 16.7547 16.8561 16.9595 17.0647 17.1719 17.2809 17.3918 17.5045 17.6191 17.7354 17.8534 17.9732 18.0947 18.2179 18.3428 18.4693 18.5974 18.7272 18.8585 18.9914 19.1258 19.2617 19.3992 19.5381 19.6785 19.8203 19.9635 20.1081 20.2541 20.4015 20.5502 20.7002 20.8515 21.004 21.1579 21.3129 21.4692 21.6267 21.7854 21.9453 22.1063 22.2684 22.4317 22.596 22.7614 22.928 23.0955 23.2641 23.4337 23.6043 23.7759 23.9485 24.122 24.2965 24.4719 24.6482 24.8255 25.0036 
24.829 24.65 24.4719 24.2947 24.1184 23.943 23.7685 23.595 23.4225 23.2509 23.0804 22.9109 22.7424 22.5749 22.4085 22.2432 22.079 21.9159 21.7539 21.5931 21.4335 21.275 21.1177 20.9617 20.8069 20.6533 20.501 20.35 20.2004 20.052 19.9051 19.7595 19.6152 19.4724 19.3311 19.1912 19.0528 18.9158 18.7804 18.6466 18.5143 18.3835 18.2544 18.1269 18.0011 17.877 17.7545 17.6338 17.5148 17.3975 17.2821 17.1685 17.0567 16.9467 16.8386 16.7325 16.6282 16.5259 16.4256 16.3273 16.2309 16.1367 16.0444 15.9543 15.8662 15.7803 15.6965 15.6149 15.5355 15.4583 15.3833 15.3106 15.2401 15.1719 15.106 15.0425 14.9812 14.9224 14.8659 14.8118 14.7601 14.7108 14.664 14.6196 14.5777 14.5382 14.5013 14.4668 14.4349 14.4054 14.3785 14.3542 14.3323 14.3131 14.2963 14.2822 14.2706 14.2616 14.2552 14.2513 14.25 14.2513 14.2552 14.2616 14.2706 14.2822 14.2963 14.3131 14.3323 14.3542 14.3785 14.4054 14.4349 14.4668 14.5013 14.5382 14.5777 14.6196 14.664 14.7108 14.7601 14.8118 14.8659 14.9224 14.9812 15.0425 15.106 15.1719 15.2401 15.3106 15.3833 15.4583 15.5355 15.6149 15.6965 15.7803 15.8662 15.9543 16.0444 16.1367 16.2309 16.3273 16.4256 16.5259 16.6282 16.7325 16.8386 16.9467 17.0567 17.1685 17.2821 17.3975 17.5148 17.6338 17.7545 17.877 18.0011 18.1269 18.2544 18.3835 18.5143 18.6466 18.7804 18.9158 19.0528 19.1912 19.3311 19.4724 19.6152 19.7595 19.9051 20.052 20.2004 20.35 20.501 20.6533 20.8069 20.9617 21.1177 21.275 21.4335 21.5931 21.7539 21.9159 22.079 22.2432 22.4085 22.5749 22.7424 22.9109 23.0804 23.2509 23.4225 23.595 23.7685 23.943 24.1184 24.2947 24.4719 24.65 24.829 
24.6554 24.4755 24.2965 24.1184 23.9411 23.7648 23.5894 23.415 23.2415 23.0691 22.8976 22.7271 22.5576 22.3892 22.2219 22.0556 21.8904 21.7264 21.5634 21.4016 21.241 21.0815 20.9233 20.7663 20.6105 20.4559 20.3026 20.1507 20 19.8507 19.7027 19.5561 19.4109 19.2671 19.1247 18.9838 18.8444 18.7065 18.5701 18.4352 18.3019 18.1702 18.0401 17.9117 17.7849 17.6598 17.5363 17.4146 17.2947 17.1765 17.0601 16.9455 16.8328 16.7219 16.613 16.5059 16.4008 16.2976 16.1964 16.0972 16 15.9049 15.8118 15.7209 15.632 15.5453 15.4608 15.3784 15.2982 15.2203 15.1446 15.0711 15 14.9312 14.8646 14.8005 14.7386 14.6792 14.6221 14.5675 14.5153 14.4655 14.4182 14.3734 14.3311 14.2912 14.2539 14.2191 14.1868 14.157 14.1299 14.1052 14.0832 14.0637 14.0468 14.0325 14.0208 14.0117 14.0052 14.0013 14 14.0013 14.0052 14.0117 14.0208 14.0325 14.0468 14.0637 14.0832 14.1052 14.1299 14.157 14.1868 14.2191 14.2539 14.2912 14.3311 14.3734 14.4182 14.4655 14.5153 14.5675 14.6221 14.6792 14.7386 14.8005 14.8646 14.9312 15 15.0711 15.1446 15.2203 15.2982 15.3784 15.4608 15.5453 15.632 15.7209 15.8118 15.9049 16 16.0972 16.1964 16.2976 16.4008 16.5059 16.613 16.7219 16.8328 16.9455 17.0601 17.1765 17.2947 17.4146 17.5363 17.6598 17.7849 17.9117 18.0401 18.1702 18.3019 18.4352 18.5701 18.7065 18.8444 18.9838 19.1247 19.2671 19.4109 19.5561 19.7027 19.8507 20 20.1507 20.3026 20.4559 20.6105 20.7663 20.9233 21.0815 21.241 21.4016 21.5634 21.7264 21.8904 22.0556 22.2219 22.3892 22.5576 22.7271 22.8976 23.0691 23.2415 23.415 23.5894 23.7648 23.9411 24.1184 24.2965 24.4755 24.6554 
24.4828 24.302 24.122 23.943 23.7648 23.5876 23.4113 23.2359 23.0615 22.8881 22.7156 22.5442 22.3738 22.2044 22.0361 21.8689 21.7027 21.5377 21.3738 21.211 21.0494 20.8889 20.7297 20.5716 20.4148 20.2593 20.105 19.952 19.8004 19.65 19.5011 19.3534 19.2072 19.0624 18.9191 18.7772 18.6367 18.4978 18.3604 18.2245 18.0903 17.9576 17.8265 17.697 17.5692 17.4431 17.3187 17.196 17.0751 16.956 16.8386 16.7231 16.6094 16.4976 16.3877 16.2797 16.1737 16.0696 15.9675 15.8675 15.7694 15.6734 15.5795 15.4877 15.3981 15.3106 15.2252 15.1421 15.0612 14.9825 14.9061 14.8319 14.7601 14.6906 14.6234 14.5586 14.4962 14.4361 14.3785 14.3233 14.2706 14.2203 14.1726 14.1273 14.0845 14.0442 14.0065 13.9713 13.9387 13.9087 13.8812 13.8563 13.8341 13.8144 13.7973 13.7829 13.771 13.7618 13.7553 13.7513 13.75 13.7513 13.7553 13.7618 13.771 13.7829 13.7973 13.8144 13.8341 13.8563 13.8812 13.9087 13.9387 13.9713 14.0065 14.0442 14.0845 14.1273 14.1726 14.2203 14.2706 14.3233 14.3785 14.4361 14.4962 14.5586 14.6234 14.6906 14.7601 14.8319 14.9061 14.9825 15.0612 15.1421 15.2252 15.3106 15.3981 15.4877 15.5795 15.6734 15.7694 15.8675 15.9675 16.0696 16.1737 16.2797 16.3877 16.4976 16.6094 16.7231 16.8386 16.956 17.0751 17.196 17.3187 17.4431 17.5692 17.697 17.8265 17.9576 18.0903 18.2245 18.3604 18.4978 18.6367 18.7772 18.9191 19.0624 19.2072 19.3534 19.5011 19.65 19.8004 19.952 20.105 20.2593 20.4148 20.5716 20.7297 20.8889 21.0494 21.211 21.3738 21.5377 21.7027 21.8689 22.0361 22.2044 22.3738 22.5442 22.7156 22.8881 23.0615 23.2359 23.4113 23.5876 23.7648 23.943 24.122 24.302 24.4828 
24.3111 24.1293 23.9485 23.7685 23.5894 23.4113 23.234 23.0577 22.8824 22.708 22.5346 22.3622 22.1908 22.0205 21.8512 21.683 21.5159 21.3498 21.1849 21.0212 20.8585 20.6971 20.5369 20.3778 20.22 20.0635 19.9082 19.7542 19.6015 19.4502 19.3002 19.1515 19.0043 18.8585 18.7141 18.5712 18.4297 18.2898 18.1514 18.0145 17.8792 17.7455 17.6134 17.4829 17.3542 17.2271 17.1017 16.978 16.8561 16.736 16.6177 16.5012 16.3865 16.2738 16.163 16.054 15.9471 15.8421 15.7391 15.6381 15.5392 15.4423 15.3476 15.255 15.1645 15.0761 14.99 14.9061 14.8244 14.7449 14.6678 14.5929 14.5204 14.4502 14.3824 14.3169 14.2539 14.1932 14.135 14.0793 14.026 13.9752 13.927 13.8812 13.838 13.7973 13.7592 13.7237 13.6907 13.6604 13.6326 13.6075 13.585 13.5651 13.5478 13.5332 13.5213 13.512 13.5053 13.5013 13.5 13.5013 13.5053 13.512 13.5213 13.5332 13.5478 13.5651 13.585 13.6075 13.6326 13.6604 13.6907 13.7237 13.7592 13.7973 13.838 13.8812 13.927 13.9752 14.026 14.0793 14.135 14.1932 14.2539 14.3169 14.3824 14.4502 14.5204 14.5929 14.6678 14.7449 14.8244 14.9061 14.99 15.0761 15.1645 15.255 15.3476 15.4423 15.5392 15.6381 15.7391 15.8421 15.9471 16.054 16.163 16.2738 16.3865 16.5012 16.6177 16.736 16.8561 16.978 17.1017 17.2271 17.3542 17.4829 17.6134 17.7455 17.8792 18.0145 18.1514 18.2898 18.4297 18.5712 18.7141 18.8585 19.0043 19.1515 19.3002 19.4502 19.6015 19.7542 19.9082 20.0635 20.22 20.3778 20.5369 20.6971 20.8585 21.0212 21.1849 21.3498 21.5159 21.683 21.8512 22.0205 22.1908 22.3622 22.5346 22.708 22.8824 23.0577 23.234 23.4113 23.5894 23.7685 23.9485 24.1293 24.3111 
24.1403 23.9577 23.7759 23.595 23.415 23.2359 23.0577 22.8805 22.7042 22.5288 22.3545 22.1811 22.0088 21.8375 21.6672 21.498 21.3299 21.1629 20.997 20.8322 20.6686 20.5061 20.3449 20.1848 20.026 19.8685 19.7122 19.5571 19.4034 19.2511 19.1 18.9504 18.8021 18.6553 18.5099 18.3659 18.2234 18.0825 17.943 17.8051 17.6688 17.5341 17.401 17.2695 17.1397 17.0116 16.8852 16.7605 16.6376 16.5165 16.3972 16.2797 16.1641 16.0504 15.9386 15.8288 15.7209 15.6149 15.511 15.4092 15.3093 15.2116 15.116 15.0225 14.9312 14.842 14.755 14.6703 14.5879 14.5077 14.4297 14.3542 14.2809 14.21 14.1415 14.0754 14.0117 13.9505 13.8917 13.8354 13.7816 13.7303 13.6815 13.6352 13.5916 13.5505 13.512 13.4761 13.4427 13.4121 13.384 13.3586 13.3359 13.3158 13.2983 13.2836 13.2715 13.2621 13.2554 13.2513 13.25 13.2513 13.2554 13.2621 13.2715 13.2836 13.2983 13.3158 13.3359 13.3586 13.384 13.4121 13.4427 13.4761 13.512 13.5505 13.5916 13.6352 13.6815 13.7303 13.7816 13.8354 13.8917 13.9505 14.0117 14.0754 14.1415 14.21 14.2809 14.3542 14.4297 14.5077 14.5879 14.6703 14.755 14.842 14.9312 15.0225 15.116 15.2116 15.3093 15.4092 15.511 15.6149 15.7209 15.8288 15.9386 16.0504 16.1641 16.2797 16.3972 16.5165 16.6376 16.7605 16.8852 17.0116 17.1397 17.2695 17.401 17.5341 17.6688 17.8051 17.943 18.0825 18.2234 18.3659 18.5099 18.6553 18.8021 18.9504 19.1 19.2511 19.4034 19.5571 19.7122 19.8685 20.026 20.1848 20.3449 20.5061 20.6686 20.8322 20.997 21.1629 21.3299 21.498 21.6672 21.8375 22.0088 22.1811 22.3545 22.5288 22.7042 22.8805 23.0577 23.2359 23.415 23.595 23.7759 23.9577 24.1403 
23.9706 23.787 23.6043 23.4225 23.2415 23.0615 22.8824 22.7042 22.5269 22.3506 22.1753 22.001 21.8277 21.6554 21.4841 21.3139 21.1448 20.9768 20.8099 20.6441 20.4795 20.316 20.1538 19.9927 19.8329 19.6743 19.5169 19.3609 19.2062 19.0528 18.9007 18.75 18.6007 18.4528 18.3064 18.1614 18.0179 17.8758 17.7354 17.5964 17.4591 17.3233 17.1892 17.0567 16.9258 16.7967 16.6693 16.5436 16.4197 16.2976 16.1773 16.0588 15.9422 15.8276 15.7148 15.604 15.4951 15.3882 15.2834 15.1806 15.0799 14.9812 14.8847 14.7904 14.6982 14.6082 14.5204 14.4349 14.3516 14.2706 14.1919 14.1156 14.0416 13.97 13.9008 13.8341 13.7697 13.7079 13.6485 13.5916 13.5372 13.4854 13.4361 13.3894 13.3452 13.3037 13.2648 13.2285 13.1948 13.1638 13.1355 13.1098 13.0868 13.0665 13.0489 13.0339 13.0217 13.0122 13.0054 13.0014 13 13.0014 13.0054 13.0122 13.0217 13.0339 13.0489 13.0665 13.0868 13.1098 13.1355 13.1638 13.1948 13.2285 13.2648 13.3037 13.3452 13.3894 13.4361 13.4854 13.5372 13.5916 13.6485 13.7079 13.7697 13.8341 13.9008 13.97 14.0416 14.1156 14.1919 14.2706 14.3516 14.4349 14.5204 14.6082 14.6982 14.7904 14.8847 14.9812 15.0799 15.1806 15.2834 15.3882 15.4951 15.604 15.7148 15.8276 15.9422 16.0588 16.1773 16.2976 16.4197 16.5436 16.6693 16.7967 16.9258 17.0567 17.1892 17.3233 17.4591 17.5964 17.7354 17.8758 18.0179 18.1614 18.3064 18.4528 18.6007 18.75 18.9007 19.0528 19.2062 19.3609 19.5169 19.6743 19.8329 19.9927 20.1538 20.316 20.4795 20.6441 20.8099 20.9768 21.1448 21.3139 21.4841 21.6554 21.8277 22.001 22.1753 22.3506 22.5269 22.7042 22.8824 23.0615 23.2415 23.4225 23.6043 23.787 23.9706 
23.8018 23.6173 23.4337 23.2509 23.0691 22.8881 22.708 22.5288 22.3506 22.1734 21.9971 21.8218 21.6475 21.4742 21.302 21.1308 20.9607 20.7916 20.6237 20.4569 20.2913 20.1268 19.9635 19.8014 19.6406 19.4809 19.3226 19.1655 19.0097 18.8552 18.7021 18.5504 18.4 18.2511 18.1036 17.9576 17.813 17.6699 17.5284 17.3884 17.25 17.1132 16.978 16.8445 16.7126 16.5824 16.454 16.3273 16.2023 16.0792 15.9579 15.8384 15.7209 15.6052 15.4914 15.3796 15.2698 15.162 15.0562 14.9525 14.8508 14.7513 14.6539 14.5586 14.4655 14.3747 14.2861 14.1997 14.1156 14.0338 13.9544 13.8773 13.8026 13.7303 13.6604 13.5929 13.5279 13.4654 13.4054 13.3479 13.293 13.2406 13.1908 13.1436 13.099 13.057 13.0177 12.981 12.9469 12.9156 12.887 12.861 12.8377 12.8172 12.7994 12.7843 12.772 12.7624 12.7555 12.7514 12.75 12.7514 12.7555 12.7624 12.772 12.7843 12.7994 12.8172 12.8377 12.861 12.887 12.9156 12.9469 12.981 13.0177 13.057 13.099 13.1436 13.1908 13.2406 13.293 13.3479 13.4054 13.4654 13.5279 13.5929 13.6604 13.7303 13.8026 13.8773 13.9544 14.0338 14.1156 14.1997 14.2861 14.3747 14.4655 14.5586 14.6539 14.7513 14.8508 14.9525 15.0562 15.162 15.2698 15.3796 15.4914 15.6052 15.7209 15.8384 15.9579 16.0792 16.2023 16.3273 16.454 16.5824 16.7126 16.8445 16.978 17.1132 17.25 17.3884 17.5284 17.6699 17.813 17.9576 18.1036 18.2511 18.4 18.5504 18.7021 18.8552 19.0097 19.1655 19.3226 19.4809 19.6406 19.8014 19.9635 20.1268 20.2913 20.4569 20.6237 20.7916 20.9607 21.1308 21.302 21.4742 21.6475 21.8218 21.9971 22.1734 22.3506 22.5288 22.708 22.8881 23.0691 23.2509 23.4337 23.6173 23.8018 
23.6341 23.4487 23.2641 23.0804 22.8976 22.7156 22.5346 22.3545 22.1753 21.9971 21.8198 21.6435 21.4682 21.294 21.1207 20.9485 20.7774 20.6074 20.4385 20.2707 20.104 19.9385 19.7741 19.611 19.4491 19.2884 19.129 18.9709 18.8141 18.6586 18.5044 18.3516 18.2002 18.0502 17.9016 17.7545 17.6089 17.4648 17.3222 17.1811 17.0416 16.9038 16.7675 16.6329 16.5 16.3688 16.2393 16.1115 15.9856 15.8614 15.7391 15.6186 15.5 15.3833 15.2686 15.1558 15.045 14.9362 14.8294 14.7247 14.6221 14.5217 14.4233 14.3272 14.2332 14.1415 14.052 13.9648 13.8799 13.7973 13.7171 13.6392 13.5637 13.4907 13.4201 13.3519 13.2863 13.2231 13.1625 13.1044 13.0489 12.9959 12.9456 12.8979 12.8528 12.8104 12.7706 12.7335 12.6991 12.6674 12.6385 12.6122 12.5887 12.568 12.5499 12.5347 12.5222 12.5125 12.5056 12.5014 12.5 12.5014 12.5056 12.5125 12.5222 12.5347 12.5499 12.568 12.5887 12.6122 12.6385 12.6674 12.6991 12.7335 12.7706 12.8104 12.8528 12.8979 12.9456 12.9959 13.0489 13.1044 13.1625 13.2231 13.2863 13.3519 13.4201 13.4907 13.5637 13.6392 13.7171 13.7973 13.8799 13.9648 14.052 14.1415 14.2332 14.3272 14.4233 14.5217 14.6221 14.7247 14.8294 14.9362 15.045 15.1558 15.2686 15.3833 15.5 15.6186 15.7391 15.8614 15.9856 16.1115 16.2393 16.3688 16.5 16.6329 16.7675 16.9038 17.0416 17.1811 17.3222 17.4648 17.6089 17.7545 17.9016 18.0502 18.2002 18.3516 18.5044 18.6586 18.8141 18.9709 19.129 19.2884 19.4491 19.611 19.7741 19.9385 20.104 20.2707 20.4385 20.6074 20.7774 20.9485 21.1207 21.294 21.4682 21.6435 21.8198 21.9971 22.1753 22.3545 22.5346 22.7156 22.8976 23.0804 23.2641 23.4487 23.6341 
23.4673 23.281 23.0955 22.9109 22.7271 22.5442 22.3622 22.1811 22.001 21.8218 21.6435 21.4663 21.29 21.1147 20.9405 20.7673 20.5951 20.4241 20.2541 20.0853 19.9176 19.7511 19.5857 19.4215 19.2585 19.0968 18.9364 18.7772 18.6193 18.4627 18.3075 18.1536 18.0011 17.85 17.7004 17.5522 17.4055 17.2603 17.1166 16.9745 16.834 16.695 16.5577 16.4221 16.2881 16.1558 16.0252 15.8964 15.7694 15.6442 15.5208 15.3993 15.2797 15.162 15.0462 14.9324 14.8206 14.7108 14.6031 14.4974 14.3939 14.2925 14.1932 14.0962 14.0013 13.9087 13.8183 13.7303 13.6445 13.5611 13.48 13.4014 13.3251 13.2513 13.18 13.1111 13.0448 12.981 12.9197 12.861 12.8049 12.7514 12.7005 12.6523 12.6067 12.5638 12.5236 12.4861 12.4513 12.4193 12.39 12.3635 12.3397 12.3187 12.3005 12.2851 12.2725 12.2626 12.2556 12.2514 12.25 12.2514 12.2556 12.2626 12.2725 12.2851 12.3005 12.3187 12.3397 12.3635 12.39 12.4193 12.4513 12.4861 12.5236 12.5638 12.6067 12.6523 12.7005 12.7514 12.8049 12.861 12.9197 12.981 13.0448 13.1111 13.18 13.2513 13.3251 13.4014 13.48 13.5611 13.6445 13.7303 13.8183 13.9087 14.0013 14.0962 14.1932 14.2925 14.3939 14.4974 14.6031 14.7108 14.8206 14.9324 15.0462 15.162 15.2797 15.3993 15.5208 15.6442 15.7694 15.8964 16.0252 16.1558 16.2881 16.4221 16.5577 16.695 16.834 16.9745 17.1166 17.2603 17.4055 17.5522 17.7004 17.85 18.0011 18.1536 18.3075 18.4627 18.6193 18.7772 18.9364 19.0968 19.2585 19.4215 19.5857 19.7511 19.9176 20.0853 20.2541 20.4241 20.5951 20.7673 20.9405 21.1147 21.29 21.4663 21.6435 21.8218 22.001 22.1811 22.3622 22.5442 22.7271 22.9109 23.0955 23.281 23.4673 
23.3017 23.1144 22.928 22.7424 22.5576 22.3738 22.1908 22.0088 21.8277 21.6475 21.4682 21.29 21.1127 20.9364 20.7612 20.587 20.4138 20.2417 20.0707 19.9009 19.7321 19.5645 19.3981 19.2329 19.0689 18.9061 18.7446 18.5843 18.4253 18.2677 18.1114 17.9564 17.8029 17.6507 17.5 17.3507 17.2029 17.0567 16.9119 16.7687 16.6271 16.487 16.3486 16.2119 16.0768 15.9434 15.8118 15.6819 15.5539 15.4276 15.3032 15.1806 15.0599 14.9412 14.8244 14.7096 14.5967 14.486 14.3772 14.2706 14.1661 14.0637 13.9635 13.8655 13.7697 13.6762 13.585 13.496 13.4094 13.3251 13.2433 13.1638 13.0868 13.0122 12.9401 12.8706 12.8035 12.739 12.6771 12.6177 12.561 12.5069 12.4555 12.4068 12.3607 12.3173 12.2767 12.2388 12.2036 12.1712 12.1416 12.1148 12.0907 12.0695 12.0511 12.0355 12.0227 12.0128 12.0057 12.0014 12 12.0014 12.0057 12.0128 12.0227 12.0355 12.0511 12.0695 12.0907 12.1148 12.1416 12.1712 12.2036 12.2388 12.2767 12.3173 12.3607 12.4068 12.4555 12.5069 12.561 12.6177 12.6771 12.739 12.8035 12.8706 12.9401 13.0122 13.0868 13.1638 13.2433 13.3251 13.4094 13.496 13.585 13.6762 13.7697 13.8655 13.9635 14.0637 14.1661 14.2706 14.3772 14.486 14.5967 14.7096 14.8244 14.9412 15.0599 15.1806 15.3032 15.4276 15.5539 15.6819 15.8118 15.9434 16.0768 16.2119 16.3486 16.487 16.6271 16.7687 16.9119 17.0567 17.2029 17.3507 17.5 17.6507 17.8029 17.9564 18.1114 18.2677 18.4253 18.5843 18.7446 18.9061 19.0689 19.2329 19.3981 19.5645 19.7321 19.9009 20.0707 20.2417 20.4138 20.587 20.7612 20.9364 21.1127 21.29 21.4682 21.6475 21.8277 22.0088 22.1908 22.3738 22.5576 22.7424 22.928 23.1144 23.3017 
23.137 22.9488 22.7614 22.5749 22.3892 22.2044 22.0205 21.8375 21.6554 21.4742 21.294 21.1147 20.9364 20.7591 20.5829 20.4076 20.2335 20.0604 19.8883 19.7174 19.5476 19.379 19.2115 19.0452 18.8801 18.7163 18.5537 18.3923 18.2323 18.0736 17.9162 17.7601 17.6055 17.4522 17.3004 17.15 17.0012 16.8538 16.7079 16.5636 16.4209 16.2797 16.1402 16.0024 15.8662 15.7318 15.5991 15.4681 15.339 15.2116 15.0861 14.9625 14.8407 14.7209 14.6031 14.4872 14.3734 14.2616 14.1519 14.0442 13.9387 13.8354 13.7342 13.6352 13.5385 13.4441 13.3519 13.2621 13.1746 13.0895 13.0068 12.9265 12.8487 12.7733 12.7005 12.6302 12.5624 12.4972 12.4346 12.3747 12.3173 12.2626 12.2106 12.1613 12.1148 12.0709 12.0298 11.9915 11.9559 11.9232 11.8932 11.8661 11.8418 11.8203 11.8017 11.7859 11.773 11.7629 11.7557 11.7514 11.75 11.7514 11.7557 11.7629 11.773 11.7859 11.8017 11.8203 11.8418 11.8661 11.8932 11.9232 11.9559 11.9915 12.0298 12.0709 12.1148 12.1613 12.2106 12.2626 12.3173 12.3747 12.4346 12.4972 12.5624 12.6302 12.7005 12.7733 12.8487 12.9265 13.0068 13.0895 13.1746 13.2621 13.3519 13.4441 13.5385 13.6352 13.7342 13.8354 13.9387 14.0442 14.1519 14.2616 14.3734 14.4872 14.6031 14.7209 14.8407 14.9625 15.0861 15.2116 15.339 15.4681 15.5991 15.7318 15.8662 16.0024 16.1402 16.2797 16.4209 16.5636 16.7079 16.8538 17.0012 17.15 17.3004 17.4522 17.6055 17.7601 17.9162 18.0736 18.2323 18.3923 18.5537 18.7163 18.8801 19.0452 19.2115 19.379 19.5476 19.7174 19.8883 20.0604 20.2335 20.4076 20.5829 20.7591 20.9364 21.1147 21.294 21.4742 21.6554 21.8375 22.0205 22.2044 22.3892 22.5749 22.7614 22.9488 23.137 
22.9735 22.7843 22.596 22.4085 22.2219 22.0361 21.8512 21.6672 21.4841 21.302 21.1207 20.9405 20.7612 20.5829 20.4056 20.2293 20.0541 19.88 19.7069 19.5349 19.3641 19.1944 19.0259 18.8585 18.6923 18.5274 18.3637 18.2013 18.0401 17.8803 17.7218 17.5647 17.4089 17.2546 17.1017 16.9502 16.8002 16.6517 16.5047 16.3593 16.2155 16.0732 15.9326 15.7937 15.6564 15.5208 15.387 15.255 15.1247 14.9962 14.8697 14.7449 14.6221 14.5013 14.3824 14.2655 14.1506 14.0377 13.927 13.8183 13.7118 13.6075 13.5053 13.4054 13.3077 13.2123 13.1193 13.0285 12.9401 12.8542 12.7706 12.6895 12.6108 12.5347 12.4611 12.39 12.3215 12.2556 12.1923 12.1317 12.0737 12.0185 11.9659 11.916 11.8689 11.8246 11.783 11.7443 11.7083 11.6752 11.6449 11.6174 11.5928 11.5711 11.5523 11.5363 11.5232 11.5131 11.5058 11.5015 11.5 11.5015 11.5058 11.5131 11.5232 11.5363 11.5523 11.5711 11.5928 11.6174 11.6449 11.6752 11.7083 11.7443 11.783 11.8246 11.8689 11.916 11.9659 12.0185 12.0737 12.1317 12.1923 12.2556 12.3215 12.39 12.4611 12.5347 12.6108 12.6895 12.7706 12.8542 12.9401 13.0285 13.1193 13.2123 13.3077 13.4054 13.5053 13.6075 13.7118 13.8183 13.927 14.0377 14.1506 14.2655 14.3824 14.5013 14.6221 14.7449 14.8697 14.9962 15.1247 15.255 15.387 15.5208 15.6564 15.7937 15.9326 16.0732 16.2155 16.3593 16.5047 16.6517 16.8002 16.9502 17.1017 17.2546 17.4089 17.5647 17.7218 17.8803 18.0401 18.2013 18.3637 18.5274 18.6923 18.8585 19.0259 19.1944 19.3641 19.5349 19.7069 19.88 20.0541 20.2293 20.4056 20.5829 20.7612 20.9405 21.1207 21.302 21.4841 21.6672 21.8512 22.0361 22.2219 22.4085 22.596 22.7843 22.9735 
22.811 22.6209 22.4317 22.2432 22.0556 21.8689 21.683 21.498 21.3139 21.1308 20.9485 20.7673 20.587 20.4076 20.2293 20.052 19.8758 19.7006 19.5265 19.3534 19.1815 19.0108 18.8412 18.6727 18.5055 18.3395 18.1747 18.0112 17.8489 17.688 17.5284 17.3701 17.2133 17.0578 16.9038 16.7512 16.6 16.4504 16.3023 16.1558 16.0108 15.8675 15.7257 15.5856 15.4472 15.3106 15.1756 15.0425 14.9111 14.7815 14.6539 14.528 14.4041 14.2822 14.1622 14.0442 13.9283 13.8144 13.7026 13.5929 13.4854 13.38 13.2769 13.176 13.0773 12.981 12.887 12.7953 12.706 12.6191 12.5347 12.4527 12.3733 12.2963 12.2219 12.1501 12.0808 12.0142 11.9502 11.8889 11.8303 11.7744 11.7212 11.6708 11.6232 11.5783 11.5363 11.4971 11.4607 11.4272 11.3966 11.3688 11.3439 11.3219 11.3029 11.2867 11.2735 11.2632 11.2559 11.2515 11.25 11.2515 11.2559 11.2632 11.2735 11.2867 11.3029 11.3219 11.3439 11.3688 11.3966 11.4272 11.4607 11.4971 11.5363 11.5783 11.6232 11.6708 11.7212 11.7744 11.8303 11.8889 11.9502 12.0142 12.0808 12.1501 12.2219 12.2963 12.3733 12.4527 12.5347 12.6191 12.706 12.7953 12.887 12.981 13.0773 13.176 13.2769 13.38 13.4854 13.5929 13.7026 13.8144 13.9283 14.0442 14.1622 14.2822 14.4041 14.528 14.6539 14.7815 14.9111 15.0425 15.1756 15.3106 15.4472 15.5856 15.7257 15.8675 16.0108 16.1558 16.3023 16.4504 16.6 16.7512 16.9038 17.0578 17.2133 17.3701 17.5284 17.688 17.8489 18.0112 18.1747 18.3395 18.5055 18.6727 18.8412 19.0108 19.1815 19.3534 19.5265 19.7006 19.8758 20.052 20.2293 20.4076 20.587 20.7673 20.9485 21.1308 21.3139 21.498 21.683 21.8689 22.0556 22.2432 22.4317 22.6209 22.811 
22.6497 22.4586 22.2684 22.079 21.8904 21.7027 21.5159 21.3299 21.1448 20.9607 20.7774 20.5951 20.4138 20.2335 20.0541 19.8758 19.6985 19.5222 19.3471 19.173 19 18.8282 18.6575 18.4879 18.3196 18.1525 17.9866 17.822 17.6586 17.4966 17.3359 17.1765 17.0185 16.8619 16.7067 16.553 16.4008 16.25 16.1008 15.9531 15.807 15.6625 15.5196 15.3784 15.2389 15.101 14.965 14.8307 14.6982 14.5675 14.4387 14.3118 14.1868 14.0637 13.9426 13.8236 13.7065 13.5916 13.4787 13.368 13.2594 13.153 13.0489 12.9469 12.8473 12.75 12.655 12.5624 12.4722 12.3844 12.2991 12.2163 12.1359 12.0582 11.9829 11.9103 11.8403 11.773 11.7083 11.6463 11.587 11.5305 11.4767 11.4257 11.3776 11.3322 11.2897 11.25 11.2132 11.1793 11.1483 11.1202 11.095 11.0728 11.0535 11.0372 11.0238 11.0134 11.006 11.0015 11 11.0015 11.006 11.0134 11.0238 11.0372 11.0535 11.0728 11.095 11.1202 11.1483 11.1793 11.2132 11.25 11.2897 11.3322 11.3776 11.4257 11.4767 11.5305 11.587 11.6463 11.7083 11.773 11.8403 11.9103 11.9829 12.0582 12.1359 12.2163 12.2991 12.3844 12.4722 12.5624 12.655 12.75 12.8473 12.9469 13.0489 13.153 13.2594 13.368 13.4787 13.5916 13.7065 13.8236 13.9426 14.0637 14.1868 14.3118 14.4387 14.5675 14.6982 14.8307 14.965 15.101 15.2389 15.3784 15.5196 15.6625 15.807 15.9531 16.1008 16.25 16.4008 16.553 16.7067 16.8619 17.0185 17.1765 17.3359 17.4966 17.6586 17.822 17.9866 18.1525 18.3196 18.4879 18.6575 18.8282 19 19.173 19.3471 19.5222 19.6985 19.8758 20.0541 20.2335 20.4138 20.5951 20.7774 20.9607 21.1448 21.3299 21.5159 21.7027 21.8904 22.079 22.2684 22.4586 22.6497 