# vtk DataFile Version 2.0
2D Surface
ASCII
DATASET RECTILINEAR_GRID
DIMENSIONS 201 201 1
X_COORDINATES 201 float
0
0.25
0.5
0.75
1
1.25
1.5
1.75
2
2.25
2.5
2.75
3
3.25
3.5
3.75
4
4.25
4.5
4.75
5
5.25
5.5
5.75
6
6.25
6.5
6.75
7
7.25
7.5
7.75
8
8.25
8.5
8.75
9
9.25
9.5
9.75
10
10.25
10.5
10.75
11
11.25
11.5
11.75
12
12.25
12.5
12.75
13
13.25
13.5
13.75
14
14.25
14.5
14.75
15
15.25
15.5
15.75
16
16.25
16.5
16.75
17
17.25
17.5
17.75
18
18.25
18.5
18.75
19
19.25
19.5
19.75
20
20.25
20.5
20.75
21
21.25
21.5
21.75
22
22.25
22.5
22.75
23
23.25
23.5
23.75
24
24.25
24.5
24.75
25
25.25
25.5
25.75
26
26.25
26.5
26.75
27
27.25
27.5
27.75
28
28.25
28.5
28.75
29
29.25
29.5
29.75
30
30.25
30.5
30.75
31
31.25
31.5
31.75
32
32.25
32.5
32.75
33
33.25
33.5
33.75
34
34.25
34.5
34.75
35
35.25
35.5
35.75
36
36.25
36.5
36.75
37
37.25
37.5
37.75
38
38.25
38.5
38.75
39
39.25
39.5
39.75
40
40.25
40.5
40.75
41
41.25
41.5
41.75
42
42.25
42.5
42.75
43
43.25
43.5
43.75
44
44.25
44.5
44.75
45
45.25
45.5
45.75
46
46.25
46.5
46.75
47
47.25
47.5
47.75
48
48.25
48.5
48.75
49
49.25
49.5
49.75
50
Y_COORDINATES 201 float
0
0.25
0.5
0.75
1
1.25
1.5
1.75
2
2.25
2.5
2.75
3
3.25
3.5
3.75
4
4.25
4.5
4.75
5
5.25
5.5
5.75
6
6.25
6.5
6.75
7
7.25
7.5
7.75
8
8.25
8.5
8.75
9
9.25
9.5
9.75
10
10.25
10.5
10.75
11
11.25
11.5
11.75
12
12.25
12.5
12.75
13
13.25
13.5
13.75
14
14.25
14.5
14.75
15
15.25
15.5
15.75
16
16.25
16.5
16.75
17
17.25
17.5
17.75
18
18.25
18.5
18.75
19
19.25
19.5
19.75
20
20.25
20.5
20.75
21
21.25
21.5
21.75
22
22.25
22.5
22.75
23
23.25
23.5
23.75
24
24.25
24.5
24.75
25
25.25
25.5
25.75
26
26.25
26.5
26.75
27
27.25
27.5
27.75
28
28.25
28.5
28.75
29
29.25
29.5
29.75
30
30.25
30.5
30.75
31
31.25
31.5
31.75
32
32.25
32.5
32.75
33
33.25
33.5
33.75
34
34.25
34.5
34.75
35
35.25
35.5
35.75
36
36.25
36.5
36.75
37
37.25
37.5
37.75
38
38.25
38.5
38.75
39
39.25
39.5
39.75
40
40.25
40.5
40.75
41
41.25
41.5
41.75
42
42.25
42.5
42.75
43
43.25
43.5
43.75
44
44.25
44.5
44.75
45
45.25
45.5
45.75
46
46.25
46.5
46.75
47
47.25
47.5
47.75
48
48.25
48.5
48.75
49
49.25
49.5
49.75
50
Z_COORDINATES 1 float
0
POINT_DATA 40401
SCALARS SDValues float
LOOKUP_TABLE default
16.8701 16.6971 16.5211 16.3462 16.1724 15.9996 15.8279 15.6571 15.4873 15.3185 15.1507 14.984 14.8183 14.6536 14.4901 14.3276 14.1663 14.006 13.8469 13.689 13.5322 13.3766 13.2222 13.0691 12.9172 12.7666 12.6172 12.4691 12.3224 12.177 12.0329 11.8903 11.749 11.6091 11.4707 11.3337 11.1982 11.0642 10.9317 10.8007 10.6713 10.5435 10.4172 10.2926 10.1696 10.0483 9.92867 9.81074 9.69453 9.58006 9.46737 9.35646 9.24737 9.1401 9.03469 8.93116 8.82952 8.72979 8.63201 8.53618 8.44234 8.35049 8.26067 8.17289 8.08717 8.00354 7.922 7.84259 7.76532 7.69021 7.61728 7.54654 7.47802 7.41173 7.34769 7.28592 7.22643 7.16924 7.11436 7.06181 7.0116 6.96376 6.91828 6.87518 6.83448 6.79619 6.76032 6.72687 6.69586 6.6673 6.64119 6.61755 6.59638 6.57768 6.56146 6.54773 6.5365 6.52775 6.5215 6.51775 6.5165 6.51775 6.5215 6.52775 6.53649 6.54773 6.56146 6.57768 6.59637 6.61755 6.64119 6.6673 6.69586 6.72687 6.76031 6.79619 6.83448 6.87518 6.91827 6.96375 7.0116 7.0618 7.11435 7.16923 7.22642 7.28591 7.34768 7.41172 7.47801 7.54653 7.61726 7.6902 7.76531 7.84258 7.92199 8.00352 8.08716 8.17288 8.26066 8.35048 8.44232 8.53617 8.63199 8.72978 8.8295 8.93114 9.03467 9.14008 9.24735 9.35644 9.46735 9.58004 9.6945 9.81071 9.92864 10.0483 10.1696 10.2926 10.4172 10.5434 10.6713 10.8007 10.9316 11.0641 11.1981 11.3336 11.4706 11.6091 11.7489 11.8902 12.0329 12.1769 12.3223 12.4691 12.6171 12.7665 12.9171 13.069 13.2222 13.3765 13.5321 13.6889 13.8468 14.0059 14.1661 14.3275 14.49 14.6535 14.8181 14.9838 15.1506 15.3183 15.4871 15.6568 15.8276 15.9993 16.1719 16.3455 16.5201 16.6955 16.8718 
16.6971 16.5165 16.3409 16.1658 15.9915 15.8181 15.6455 15.4739 15.3033 15.1336 14.965 14.7973 14.6307 14.4652 14.3007 14.1373 13.975 13.8138 13.6538 13.4949 13.3372 13.1807 13.0253 12.8712 12.7184 12.5668 12.4165 12.2674 12.1197 11.9734 11.8283 11.6847 11.5425 11.4016 11.2622 11.1243 10.9878 10.8528 10.7194 10.5875 10.4571 10.3283 10.2012 10.0756 9.95168 9.82943 9.70887 9.59001 9.47289 9.35752 9.24392 9.13212 9.02213 8.91399 8.80771 8.70331 8.60081 8.50025 8.40163 8.30498 8.21032 8.11768 8.02707 7.93851 7.85203 7.76765 7.68538 7.60525 7.52727 7.45147 7.37787 7.30648 7.23732 7.17041 7.10577 7.04341 6.98335 6.92561 6.87021 6.81715 6.76646 6.71815 6.67223 6.62871 6.58761 6.54894 6.51271 6.47894 6.44762 6.41877 6.39241 6.36853 6.34714 6.32826 6.31188 6.29801 6.28666 6.27783 6.27152 6.26773 6.26647 6.26773 6.27152 6.27783 6.28666 6.29801 6.31188 6.32826 6.34715 6.36853 6.39241 6.41878 6.44762 6.47894 6.51272 6.54895 6.58762 6.62872 6.67224 6.71816 6.76647 6.81716 6.87022 6.92562 6.98336 7.04342 7.10578 7.17042 7.23733 7.30649 7.37788 7.45149 7.52729 7.60526 7.68539 7.76766 7.85205 7.93853 8.02708 8.11769 8.21034 8.305 8.40165 8.50026 8.60083 8.70333 8.80773 8.91401 9.02215 9.13214 9.24394 9.35754 9.47291 9.59004 9.70889 9.82946 9.95171 10.0756 10.2012 10.3284 10.4571 10.5875 10.7194 10.8529 10.9879 11.1243 11.2623 11.4017 11.5425 11.6848 11.8284 11.9734 12.1198 12.2675 12.4165 12.5668 12.7184 12.8713 13.0254 13.1807 13.3373 13.495 13.6539 13.8139 13.9751 14.1374 14.3008 14.4653 14.6309 14.7975 14.9651 15.1338 15.3035 15.4742 15.6458 15.8184 15.992 16.1665 16.3419 16.5183 16.6955 
16.5211 16.3409 16.163 15.9868 15.8117 15.6375 15.4641 15.2916 15.1201 14.9496 14.78 14.6115 14.444 14.2775 14.1121 13.9478 13.7846 13.6224 13.4615 13.3016 13.1429 12.9855 12.8292 12.6741 12.5203 12.3677 12.2164 12.0665 11.9178 11.7704 11.6244 11.4798 11.3366 11.1948 11.0544 10.9155 10.7781 10.6421 10.5077 10.3748 10.2435 10.1138 9.98564 9.85913 9.73427 9.61107 9.48957 9.36978 9.25173 9.13544 9.02093 8.90822 8.79733 8.68829 8.58113 8.47585 8.37249 8.27107 8.1716 8.07412 7.97864 7.88518 7.79377 7.70442 7.61717 7.53202 7.44901 7.36815 7.28946 7.21296 7.13867 7.06661 6.9968 6.92925 6.864 6.80105 6.74041 6.68212 6.62618 6.57261 6.52142 6.47263 6.42626 6.38231 6.34081 6.30175 6.26516 6.23105 6.19942 6.17028 6.14365 6.11953 6.09793 6.07885 6.0623 6.0483 6.03683 6.02791 6.02153 6.01771 6.01643 6.01771 6.02154 6.02791 6.03683 6.0483 6.06231 6.07886 6.09793 6.11954 6.14366 6.17029 6.19943 6.23106 6.26518 6.30177 6.34082 6.38233 6.42628 6.47265 6.52144 6.57263 6.6262 6.68214 6.74044 6.80107 6.86403 6.92929 6.99683 7.06664 7.1387 7.21299 7.28949 7.36819 7.44905 7.53207 7.61721 7.70447 7.79381 7.88523 7.97869 8.07417 8.17165 8.27112 8.37255 8.47591 8.58119 8.68836 8.7974 8.90828 9.021 9.13551 9.25181 9.36986 9.48965 9.61116 9.73435 9.85922 9.98573 10.1139 10.2436 10.3749 10.5078 10.6423 10.7782 10.9156 11.0546 11.1949 11.3367 11.48 11.6246 11.7706 11.9179 12.0666 12.2166 12.3679 12.5205 12.6743 12.8294 12.9857 13.1432 13.3019 13.4617 13.6227 13.7849 13.9481 14.1125 14.2779 14.4444 14.612 14.7806 14.9502 15.1208 15.2924 15.4649 15.6385 15.813 15.9884 16.1647 16.3419 16.52 
16.3462 16.1658 15.9868 15.8094 15.6332 15.458 15.2837 15.1103 14.9379 14.7665 14.596 14.4266 14.2581 14.0907 13.9244 13.7591 13.5949 13.4319 13.2699 13.1091 12.9495 12.7911 12.6338 12.4778 12.323 12.1694 12.0172 11.8662 11.7165 11.5682 11.4213 11.2757 11.1315 10.9887 10.8473 10.7074 10.569 10.4321 10.2967 10.1628 10.0305 9.89981 9.7707 9.64323 9.5174 9.39325 9.2708 9.15006 9.03107 8.91384 8.7984 8.68477 8.57297 8.46303 8.35496 8.2488 8.14456 8.04226 7.94194 7.8436 7.74729 7.653 7.56078 7.47063 7.38259 7.29667 7.2129 7.13129 7.05187 6.97466 6.89967 6.82693 6.75646 6.68827 6.62239 6.55883 6.49761 6.43875 6.38226 6.32817 6.27648 6.22721 6.18037 6.13599 6.09406 6.05462 6.01766 5.9832 5.95125 5.92182 5.89491 5.87055 5.84872 5.82945 5.81274 5.79859 5.787 5.77799 5.77155 5.76769 5.7664 5.76769 5.77155 5.778 5.78701 5.7986 5.81275 5.82947 5.84874 5.87056 5.89493 5.92184 5.95127 5.98322 6.01768 6.05464 6.09409 6.13602 6.1804 6.22724 6.27651 6.3282 6.3823 6.43879 6.49766 6.55888 6.62244 6.68833 6.75651 6.82699 6.89973 6.97472 7.05193 7.13136 7.21297 7.29674 7.38266 7.47071 7.56086 7.65308 7.74737 7.84369 7.94203 8.04236 8.14465 8.2489 8.35506 8.46313 8.57308 8.68488 8.79852 8.91396 9.0312 9.15019 9.27093 9.39339 9.51755 9.64337 9.77085 9.89996 10.0307 10.163 10.2969 10.4323 10.5692 10.7076 10.8475 10.9889 11.1317 11.2759 11.4215 11.5685 11.7168 11.8665 12.0175 12.1697 12.3233 12.4781 12.6342 12.7914 12.9499 13.1096 13.2704 13.4323 13.5954 13.7597 13.925 14.0914 14.2588 14.4273 14.5968 14.7674 14.9389 15.1115 15.285 15.4594 15.6348 15.8111 15.9884 16.1665 16.3455 
16.1724 15.9915 15.8117 15.6332 15.4558 15.2796 15.1043 14.93 14.7567 14.5843 14.4129 14.2425 14.0732 13.9048 13.7375 13.5713 13.4062 13.2421 13.0792 12.9175 12.7569 12.5975 12.4392 12.2822 12.1264 11.9719 11.8187 11.6667 11.516 11.3667 11.2188 11.0722 10.927 10.7832 10.6409 10.5 10.3606 10.2226 10.0863 9.95141 9.81812 9.68643 9.55634 9.42789 9.3011 9.17598 9.05256 8.93087 8.81092 8.69274 8.57636 8.46179 8.34907 8.2382 8.12923 8.02216 7.91702 7.81385 7.71265 7.61345 7.51628 7.42116 7.32811 7.23715 7.14831 7.0616 6.97705 6.89469 6.81453 6.73659 6.66089 6.58746 6.51632 6.44747 6.38095 6.31678 6.25496 6.19552 6.13847 6.08384 6.03163 5.98187 5.93457 5.88974 5.84739 5.80754 5.77021 5.7354 5.70312 5.67339 5.64621 5.62159 5.59954 5.58007 5.56318 5.54889 5.53718 5.52808 5.52157 5.51766 5.51636 5.51767 5.52157 5.52808 5.53719 5.5489 5.5632 5.58009 5.59956 5.62161 5.64623 5.67341 5.70315 5.73543 5.77024 5.80758 5.84743 5.88978 5.93461 5.98192 6.03169 6.08389 6.13853 6.19558 6.25502 6.31684 6.38102 6.44754 6.51639 6.58754 6.66097 6.73667 6.81461 6.89478 6.97715 7.0617 7.14841 7.23725 7.32822 7.42127 7.5164 7.61357 7.71277 7.81398 7.91716 8.0223 8.12937 8.23835 8.34922 8.46195 8.57652 8.69291 8.81109 8.93105 9.05275 9.17617 9.3013 9.4281 9.55656 9.68665 9.81835 9.95164 10.0865 10.2229 10.3608 10.5002 10.6411 10.7835 10.9273 11.0725 11.2191 11.3671 11.5164 11.6671 11.8191 11.9723 12.1269 12.2827 12.4397 12.598 12.7574 12.9181 13.0798 13.2428 13.4069 13.572 13.7383 13.9057 14.0741 14.2435 14.414 14.5855 14.758 14.9314 15.1059 15.2812 15.4575 15.6348 15.8129 15.992 16.1719 
15.9996 15.8181 15.6375 15.458 15.2796 15.1023 14.926 14.7507 14.5764 14.4031 14.2308 14.0594 13.8891 13.7198 13.5515 13.3844 13.2183 13.0533 12.8894 12.7267 12.5651 12.4047 12.2455 12.0875 11.9307 11.7752 11.6209 11.468 11.3163 11.166 11.017 10.8694 10.7232 10.5784 10.4351 10.2932 10.1528 10.0139 9.87648 9.74063 9.60635 9.47366 9.34258 9.21314 9.08536 8.95926 8.83487 8.7122 8.59129 8.47215 8.35481 8.2393 8.12563 8.01383 7.90393 7.79595 7.6899 7.58583 7.48374 7.38367 7.28563 7.18966 7.09577 7.00398 6.91432 6.82681 6.74148 6.65835 6.57743 6.49875 6.42233 6.3482 6.27637 6.20686 6.13969 6.07488 6.01245 5.95242 5.89481 5.83963 5.7869 5.73663 5.68885 5.64356 5.60079 5.56053 5.52281 5.48764 5.45503 5.42499 5.39753 5.37265 5.35038 5.3307 5.31364 5.29919 5.28737 5.27816 5.27159 5.26764 5.26633 5.26765 5.27159 5.27817 5.28738 5.29921 5.31366 5.33073 5.3504 5.37268 5.39756 5.42502 5.45507 5.48768 5.52286 5.56058 5.60084 5.64362 5.68891 5.7367 5.78696 5.8397 5.89488 5.9525 6.01253 6.07496 6.13977 6.20695 6.27646 6.3483 6.42244 6.49886 6.57754 6.65846 6.7416 6.82694 6.91445 7.00411 7.0959 7.1898 7.28578 7.38382 7.4839 7.58599 7.69008 7.79612 7.90411 8.01402 8.12582 8.2395 8.35502 8.47236 8.59151 8.71243 8.8351 8.95951 9.08562 9.21341 9.34286 9.47394 9.60664 9.74093 9.87679 10.0142 10.1531 10.2936 10.4355 10.5788 10.7236 10.8698 11.0175 11.1664 11.3168 11.4684 11.6214 11.7757 11.9312 12.088 12.2461 12.4053 12.5658 12.7274 12.8902 13.0541 13.2191 13.3853 13.5525 13.7208 13.8902 14.0606 14.232 14.4045 14.5779 14.7523 14.9277 15.104 15.2812 15.4594 15.6384 15.8184 15.9992 
15.8279 15.6455 15.4641 15.2837 15.1043 14.926 14.7487 14.5725 14.3972 14.2229 14.0496 13.8772 13.706 13.5357 13.3665 13.1983 13.0312 12.8653 12.7004 12.5367 12.3741 12.2127 12.0525 11.8935 11.7357 11.5792 11.424 11.27 11.1173 10.966 10.816 10.6674 10.5202 10.3744 10.23 10.0871 9.9457 9.80577 9.66736 9.5305 9.39521 9.26152 9.12943 8.99899 8.87021 8.74312 8.61773 8.49408 8.37219 8.25207 8.13377 8.01729 7.90267 7.78992 7.67908 7.57017 7.46321 7.35822 7.25523 7.15427 7.05535 6.95851 6.86376 6.77113 6.68065 6.59233 6.50619 6.42227 6.34059 6.26116 6.184 6.10915 6.03662 5.96643 5.8986 5.83315 5.7701 5.70947 5.65128 5.59554 5.54227 5.4915 5.44322 5.39747 5.35425 5.31358 5.27547 5.23993 5.20698 5.17663 5.14888 5.12374 5.10123 5.08135 5.06411 5.04951 5.03755 5.02825 5.02161 5.01762 5.01629 5.01763 5.02162 5.02826 5.03757 5.04952 5.06413 5.08138 5.10126 5.12378 5.14892 5.17667 5.20703 5.23999 5.27553 5.31364 5.35432 5.39754 5.4433 5.49157 5.54235 5.59562 5.65137 5.70956 5.7702 5.83325 5.8987 5.96654 6.03674 6.10927 6.18413 6.26129 6.34072 6.42241 6.50634 6.59248 6.6808 6.7713 6.86393 6.95868 7.05553 7.15446 7.25543 7.35842 7.46341 7.57038 7.67931 7.79015 7.90291 8.01754 8.13402 8.25234 8.37246 8.49436 8.61802 8.74342 8.87052 8.99931 9.12977 9.26186 9.39557 9.53087 9.66774 9.80616 9.94611 10.0876 10.2305 10.3749 10.5207 10.6679 10.8165 10.9665 11.1179 11.2706 11.4246 11.5799 11.7364 11.8942 12.0532 12.2135 12.3749 12.5375 12.7013 12.8662 13.0323 13.1994 13.3676 13.5369 13.7072 13.8786 14.051 14.2244 14.3988 14.5741 14.7504 14.9277 15.1058 15.2849 15.4649 15.6457 15.8275 
15.6571 15.4739 15.2916 15.1103 14.93 14.7507 14.5725 14.3952 14.2189 14.0436 13.8693 13.696 13.5238 13.3525 13.1823 13.0132 12.8451 12.6782 12.5123 12.3476 12.184 12.0216 11.8604 11.7004 11.5416 11.3841 11.2278 11.0728 10.9191 10.7668 10.6158 10.4662 10.3179 10.1711 10.0257 9.88176 9.73931 9.59835 9.45892 9.32104 9.18473 9.05001 8.91691 8.78545 8.65566 8.52756 8.40117 8.27652 8.15363 8.03253 7.91324 7.79579 7.6802 7.56649 7.4547 7.34484 7.23694 7.13103 7.02712 6.92526 6.82545 6.72772 6.6321 6.53862 6.44729 6.35814 6.27119 6.18647 6.10401 6.02381 5.94591 5.87033 5.79708 5.72619 5.65769 5.59159 5.5279 5.46666 5.40788 5.35157 5.29776 5.24646 5.19769 5.15146 5.10779 5.0667 5.02819 4.99228 4.95898 4.9283 4.90026 4.87485 4.8521 4.83201 4.81458 4.79983 4.78775 4.77835 4.77163 4.7676 4.76626 4.76761 4.77164 4.77836 4.78776 4.79985 4.81461 4.83204 4.85214 4.8749 4.9003 4.92835 4.95903 4.99234 5.02825 5.06677 5.10787 5.15154 5.19777 5.24655 5.29785 5.35167 5.40798 5.46677 5.52802 5.59171 5.65782 5.72633 5.79722 5.87047 5.94606 6.02396 6.10417 6.18664 6.27137 6.35832 6.44747 6.53881 6.6323 6.72793 6.82566 6.92548 7.02735 7.13126 7.23719 7.34509 7.45496 7.56676 7.68048 7.79608 7.91354 8.03284 8.15395 8.27685 8.40151 8.52791 8.65603 8.78583 8.9173 9.05041 9.18514 9.32147 9.45937 9.59881 9.73979 9.88226 10.0262 10.1716 10.3185 10.4667 10.6164 10.7674 10.9198 11.0735 11.2285 11.3848 11.5424 11.7012 11.8613 12.0225 12.185 12.3486 12.5133 12.6792 12.8463 13.0144 13.1836 13.3538 13.5252 13.6975 13.8708 14.0452 14.2205 14.3968 14.5741 14.7523 14.9314 15.1114 15.2923 15.4741 15.6567 
15.4873 15.3033 15.1201 14.9379 14.7567 14.5764 14.3972 14.2189 14.0416 13.8654 13.6901 13.5158 13.3425 13.1703 12.9991 12.829 12.6599 12.492 12.3251 12.1594 11.9948 11.8314 11.6692 11.5081 11.3483 11.1898 11.0325 10.8765 10.7218 10.5684 10.4163 10.2657 10.1164 9.96853 9.8221 9.67713 9.53363 9.39164 9.25117 9.11225 8.97491 8.83916 8.70503 8.57254 8.44173 8.3126 8.1852 8.05953 7.93564 7.81353 7.69325 7.57481 7.45823 7.34355 7.23079 7.11997 7.01112 6.90427 6.79943 6.69664 6.59593 6.4973 6.4008 6.30644 6.21426 6.12427 6.03649 5.95096 5.86769 5.78672 5.70805 5.63173 5.55775 5.48616 5.41697 5.3502 5.28587 5.224 5.16462 5.10773 5.05336 5.00153 4.95225 4.90554 4.86141 4.81988 4.78096 4.74467 4.71102 4.68001 4.65167 4.62599 4.603 4.58269 4.56507 4.55015 4.53794 4.52844 4.52165 4.51758 4.51622 4.51759 4.52166 4.52846 4.53796 4.55018 4.5651 4.58272 4.60304 4.62604 4.65172 4.68007 4.71108 4.74474 4.78104 4.81996 4.8615 4.90563 4.95235 5.00163 5.05347 5.10785 5.16474 5.22413 5.286 5.35034 5.41712 5.48631 5.55791 5.63189 5.70823 5.7869 5.86788 5.95115 6.03669 6.12447 6.21447 6.30667 6.40103 6.49754 6.59617 6.6969 6.7997 6.90454 7.0114 7.12026 7.23109 7.34386 7.45855 7.57514 7.69359 7.81389 7.936 8.05991 8.18559 8.31301 8.44214 8.57297 8.70547 8.83962 8.97538 9.11275 9.25168 9.39217 9.53418 9.67769 9.82269 9.96914 10.117 10.2663 10.417 10.5691 10.7225 10.8772 11.0333 11.1906 11.3492 11.509 11.6701 11.8324 11.9958 12.1605 12.3262 12.4931 12.6612 12.8303 13.0005 13.1717 13.344 13.5173 13.6916 13.867 14.0433 14.2205 14.3987 14.5778 14.7579 14.9388 15.1207 15.3034 15.4869 
15.3185 15.1336 14.9496 14.7665 14.5843 14.4031 14.2229 14.0436 13.8654 13.6881 13.5118 13.3365 13.1623 12.989 12.8169 12.6457 12.4757 12.3067 12.1388 11.9721 11.8065 11.6421 11.4788 11.3168 11.1559 10.9963 10.838 10.6809 10.5252 10.3708 10.2177 10.066 9.91565 9.76673 9.61925 9.47323 9.32868 9.18564 9.04413 8.90416 8.76577 8.62897 8.4938 8.36027 8.22842 8.09826 7.96982 7.84314 7.71822 7.5951 7.4738 7.35435 7.23678 7.12111 7.00737 6.89557 6.78576 6.67795 6.57217 6.46844 6.3668 6.26727 6.16987 6.07462 5.98156 5.89071 5.8021 5.71574 5.63166 5.54989 5.47045 5.39336 5.31865 5.24634 5.17645 5.10899 5.04401 4.9815 4.9215 4.86402 4.80909 4.75671 4.70691 4.6597 4.61511 4.57313 4.5338 4.49712 4.4631 4.43176 4.40311 4.37715 4.35391 4.33338 4.31557 4.30049 4.28815 4.27854 4.27168 4.26756 4.26619 4.26757 4.27169 4.27856 4.28817 4.30052 4.3156 4.33342 4.35396 4.37721 4.40317 4.43183 4.46317 4.49719 4.53388 4.57322 4.6152 4.65981 4.70702 4.75683 4.80921 4.86415 4.92164 4.98165 5.04416 5.10915 5.17661 5.24651 5.31883 5.39355 5.47064 5.55009 5.63187 5.71595 5.80232 5.89095 5.98181 6.07487 6.17013 6.26754 6.36708 6.46873 6.57246 6.67825 6.78607 6.8959 7.0077 7.12146 7.23714 7.35473 7.47419 7.5955 7.71863 7.84356 7.97026 8.09871 8.22889 8.36076 8.4943 8.62949 8.7663 8.90471 9.0447 9.18623 9.3293 9.47386 9.61991 9.76741 9.91635 10.0667 10.2184 10.3716 10.526 10.6818 10.8389 10.9972 11.1569 11.3177 11.4798 11.6431 11.8076 11.9733 12.14 12.308 12.477 12.6471 12.8183 12.9905 13.1638 13.3381 13.5134 13.6897 13.8669 14.0452 14.2243 14.4044 14.5854 14.7673 14.95 15.1337 15.3181 
15.1507 14.965 14.78 14.596 14.4129 14.2308 14.0496 13.8693 13.6901 13.5118 13.3345 13.1582 12.983 12.8088 12.6356 12.4634 12.2923 12.1224 11.9535 11.7857 11.6191 11.4536 11.2893 11.1262 10.9644 10.8037 10.6444 10.4863 10.3295 10.174 10.0198 9.86708 9.71569 9.56572 9.41718 9.27009 9.12449 8.98038 8.8378 8.69678 8.55732 8.41947 8.28324 8.14866 8.01576 7.88455 7.75507 7.62734 7.50139 7.37724 7.25491 7.13445 7.01586 6.89919 6.78444 6.67166 6.56086 6.45208 6.34534 6.24067 6.13809 6.03763 5.93931 5.84316 5.74922 5.65749 5.56802 5.48082 5.39591 5.31333 5.2331 5.15524 5.07977 5.00673 4.93612 4.86798 4.80232 4.73916 4.67853 4.62045 4.56494 4.512 4.46167 4.41396 4.36888 4.32646 4.2867 4.24962 4.21523 4.18355 4.15458 4.12834 4.10484 4.08408 4.06608 4.05083 4.03835 4.02864 4.0217 4.01754 4.01616 4.01755 4.02172 4.02866 4.03838 4.05087 4.06612 4.08413 4.10489 4.1284 4.15465 4.18362 4.21531 4.2497 4.28679 4.32656 4.36899 4.41407 4.46179 4.51213 4.56507 4.6206 4.67868 4.73932 4.80248 4.86815 4.9363 5.00692 5.07997 5.15545 5.23331 5.31355 5.39614 5.48106 5.56827 5.65775 5.74948 5.84344 5.9396 6.03792 6.13839 6.24099 6.34567 6.45242 6.56122 6.67202 6.78482 6.89957 7.01626 7.13486 7.25534 7.37768 7.50184 7.62781 7.75555 7.88505 8.01627 8.1492 8.28379 8.42004 8.55791 8.69739 8.83843 8.98103 9.12516 9.27079 9.4179 9.56647 9.71647 9.86788 10.0207 10.1748 10.3304 10.4872 10.6453 10.8047 10.9654 11.1273 11.2904 11.4548 11.6203 11.787 11.9548 12.1237 12.2937 12.4649 12.637 12.8103 12.9845 13.1598 13.3361 13.5134 13.6916 13.8708 14.0509 14.2319 14.4139 14.5967 14.7804 14.965 15.1504 
14.984 14.7973 14.6115 14.4266 14.2425 14.0594 13.8772 13.696 13.5158 13.3365 13.1582 12.981 12.8047 12.6295 12.4552 12.2821 12.11 11.939 11.7691 11.6003 11.4326 11.2661 11.1008 10.9366 10.7737 10.612 10.4516 10.2924 10.1346 9.97804 9.82284 9.669 9.51655 9.3655 9.21589 9.06773 8.92105 8.77587 8.63222 8.49012 8.3496 8.21067 8.07337 7.93773 7.80376 7.67149 7.54095 7.41216 7.28516 7.15996 7.0366 6.9151 6.79549 6.67779 6.56203 6.44825 6.33645 6.22669 6.11897 6.01333 5.90979 5.80839 5.70914 5.61208 5.51723 5.42461 5.33426 5.2462 5.16046 5.07705 4.99602 4.91737 4.84113 4.76733 4.696 4.62715 4.5608 4.49699 4.43572 4.37702 4.32091 4.26741 4.21654 4.16831 4.12275 4.07986 4.03966 4.00218 3.96741 3.93538 3.90609 3.87956 3.8558 3.83481 3.8166 3.80119 3.78857 3.77875 3.77173 3.76752 3.76612 3.76753 3.77175 3.77877 3.7886 3.80122 3.81665 3.83486 3.85586 3.87963 3.90616 3.93546 3.9675 4.00227 4.03977 4.07997 4.12286 4.16844 4.21667 4.26755 4.32106 4.37718 4.43588 4.49716 4.56099 4.62734 4.6962 4.76754 4.84135 4.91759 4.99625 5.0773 5.16071 5.24647 5.33454 5.4249 5.51752 5.61238 5.70945 5.80871 5.91013 6.01368 6.11933 6.22706 6.33684 6.44864 6.56244 6.67821 6.79592 6.91555 7.03707 7.16044 7.28566 7.41268 7.54148 7.67203 7.80432 7.93831 8.07397 8.21129 8.35024 8.49078 8.63291 8.77658 8.92178 9.06849 9.21667 9.36631 9.51738 9.66987 9.82373 9.97897 10.1355 10.2934 10.4526 10.6131 10.7748 10.9378 11.102 11.2673 11.4339 11.6016 11.7704 11.9404 12.1114 12.2836 12.4568 12.631 12.8063 12.9825 13.1598 13.3381 13.5173 13.6974 13.8785 14.0605 14.2434 14.4272 14.6118 14.7973 14.9836 
14.8183 14.6307 14.444 14.2581 14.0732 13.8891 13.706 13.5238 13.3425 13.1623 12.983 12.8047 12.6274 12.4512 12.2759 12.1017 11.9286 11.7566 11.5856 11.4158 11.2471 11.0795 10.9131 10.748 10.584 10.4212 10.2597 10.0995 9.94057 9.78296 9.62668 9.47177 9.31823 9.1661 9.01541 8.86616 8.7184 8.57213 8.4274 8.28421 8.1426 8.00259 7.86421 7.72748 7.59243 7.45909 7.32747 7.19762 7.06955 6.94329 6.81888 6.69633 6.57567 6.45694 6.34015 6.22534 6.11254 6.00177 5.89306 5.78643 5.68193 5.57956 5.47937 5.38137 5.2856 5.19208 5.10084 5.01191 4.92531 4.84106 4.7592 4.67975 4.60273 4.52817 4.45609 4.38652 4.31947 4.25498 4.19306 4.13373 4.07702 4.02294 3.97151 3.92276 3.87669 3.83333 3.79269 3.75479 3.71964 3.68725 3.65763 3.63081 3.60678 3.58555 3.56714 3.55155 3.53879 3.52886 3.52176 3.5175 3.51609 3.51751 3.52178 3.52888 3.53882 3.55159 3.56719 3.58561 3.60684 3.63088 3.65771 3.68734 3.71973 3.75489 3.79281 3.83345 3.87682 3.9229 3.97166 4.02309 4.07718 4.1339 4.19324 4.25517 4.31967 4.38673 4.45631 4.5284 4.60297 4.68 4.75946 4.84133 4.92558 5.0122 5.10114 5.19239 5.28592 5.3817 5.47971 5.57992 5.68229 5.78681 5.89345 6.00217 6.11296 6.22577 6.3406 6.45739 6.57614 6.69682 6.81938 6.94381 7.07009 7.19817 7.32805 7.45968 7.59304 7.72811 7.86486 8.00326 8.14329 8.28492 8.42813 8.57289 8.71918 8.86697 9.01625 9.16697 9.31913 9.47269 9.62764 9.78395 9.94159 10.1006 10.2608 10.4224 10.5851 10.7492 10.9144 11.0808 11.2484 11.4171 11.587 11.758 11.9301 12.1032 12.2774 12.4527 12.629 12.8062 12.9845 13.1637 13.3439 13.5251 13.7071 13.8901 14.0739 14.2586 14.4442 14.6307 14.8179 
14.6536 14.4652 14.2775 14.0907 13.9048 13.7198 13.5357 13.3525 13.1703 12.989 12.8088 12.6295 12.4512 12.2739 12.0976 11.9224 11.7482 11.5751 11.4031 11.2323 11.0625 10.8939 10.7265 10.5602 10.3952 10.2313 10.0688 9.90747 9.74746 9.58876 9.43139 9.27539 9.12076 8.96754 8.81575 8.66541 8.51654 8.36918 8.22334 8.07906 7.93635 7.79524 7.65576 7.51794 7.3818 7.24736 7.11466 6.98372 6.85458 6.72724 6.60176 6.47814 6.35643 6.23664 6.11881 6.00297 5.88913 5.77734 5.66762 5.56 5.45451 5.35117 5.25001 5.15106 5.05436 4.95992 4.86777 4.77795 4.69047 4.60537 4.52267 4.4424 4.36458 4.28924 4.2164 4.1461 4.07834 4.01315 3.95056 3.89059 3.83326 3.77859 3.7266 3.67731 3.63073 3.58689 3.5458 3.50747 3.47192 3.43916 3.40921 3.38208 3.35778 3.33631 3.31769 3.30192 3.28901 3.27897 3.27179 3.26749 3.26605 3.2675 3.27181 3.27899 3.28905 3.30196 3.31774 3.33637 3.35785 3.38216 3.4093 3.43926 3.47202 3.50758 3.54592 3.58702 3.63087 3.67746 3.72676 3.77876 3.83344 3.89078 3.95076 4.01336 4.07855 4.14632 4.21664 4.28948 4.36483 4.44266 4.52295 4.60565 4.69077 4.77825 4.86809 4.96025 5.0547 5.15142 5.25038 5.35155 5.4549 5.56041 5.66804 5.77778 5.88958 6.00343 6.11929 6.23713 6.35694 6.47867 6.6023 6.7278 6.85515 6.98432 7.11528 7.248 7.38245 7.51861 7.65646 7.79596 7.93709 8.07982 8.22413 8.36999 8.51738 8.66627 8.81664 8.96846 9.12171 9.27636 9.4324 9.5898 9.74853 9.90858 10.0699 10.2325 10.3964 10.5615 10.7278 10.8952 11.0639 11.2337 11.4046 11.5766 11.7497 11.9239 12.0991 12.2754 12.4527 12.631 12.8102 12.9905 13.1716 13.3537 13.5368 13.7207 13.9055 14.0912 14.2777 14.4651 14.6533 
14.4901 14.3007 14.1121 13.9244 13.7375 13.5515 13.3665 13.1823 12.9991 12.8169 12.6356 12.4552 12.2759 12.0976 11.9203 11.7441 11.5689 11.3947 11.2217 11.0497 10.8789 10.7093 10.5407 10.3734 10.2073 10.0424 9.87874 9.71635 9.55524 9.39545 9.23699 9.07988 8.92415 8.76983 8.61693 8.46548 8.31551 8.16703 8.02008 7.87469 7.73087 7.58865 7.44806 7.30913 7.17188 7.03634 6.90253 6.7705 6.64025 6.51183 6.38526 6.26056 6.13777 6.01692 5.89803 5.78113 5.66625 5.55343 5.44268 5.33404 5.22754 5.12321 5.02107 4.92116 4.8235 4.72812 4.63505 4.54432 4.45595 4.36998 4.28643 4.20532 4.12669 4.05055 3.97694 3.90588 3.83739 3.77151 3.70824 3.64761 3.58965 3.53437 3.48181 3.43196 3.38486 3.34053 3.29897 3.26021 3.22425 3.19112 3.16083 3.13339 3.1088 3.08709 3.06825 3.0523 3.03925 3.02908 3.02183 3.01747 3.01602 3.01748 3.02184 3.02911 3.03928 3.05235 3.06831 3.08715 3.10888 3.13347 3.16092 3.19122 3.22436 3.26033 3.2991 3.34067 3.38501 3.43212 3.48197 3.53455 3.58984 3.64781 3.70844 3.77172 3.83762 3.90612 3.97719 4.05081 4.12696 4.2056 4.28672 4.37029 4.45627 4.54465 4.63539 4.72847 4.82387 4.92154 5.02147 5.12362 5.22796 5.33448 5.44313 5.55389 5.66673 5.78162 5.89854 6.01744 6.13831 6.26112 6.38583 6.51243 6.64087 6.77113 6.90319 7.03701 7.17257 7.30984 7.44879 7.58941 7.73165 7.87549 8.02091 8.16789 8.31639 8.46639 8.61786 8.77079 8.92515 9.08091 9.23804 9.39654 9.55636 9.7175 9.87993 10.0436 10.2086 10.3747 10.5421 10.7106 10.8803 11.0512 11.2231 11.3962 11.5703 11.7456 11.9218 12.0991 12.2774 12.4567 12.637 12.8182 13.0004 13.1835 13.3675 13.5524 13.7381 13.9248 14.1123 14.3006 14.4897 
14.3276 14.1373 13.9478 13.7591 13.5713 13.3844 13.1983 13.0132 12.829 12.6457 12.4634 12.2821 12.1017 11.9224 11.7441 11.5668 11.3905 11.2153 11.0412 10.8682 10.6963 10.5256 10.356 10.1876 10.0204 9.8544 9.68965 9.52616 9.36395 9.20306 9.04349 8.88527 8.72843 8.57299 8.41897 8.2664 8.1153 7.96571 7.81763 7.67111 7.52616 7.38282 7.24111 7.10105 6.96268 6.82602 6.6911 6.55795 6.4266 6.29707 6.16939 6.0436 5.91972 5.79778 5.67781 5.55985 5.44391 5.33003 5.21824 5.10857 5.00105 4.89571 4.79257 4.69167 4.59304 4.49671 4.4027 4.31104 4.22177 4.13491 4.05048 3.96852 3.88906 3.81211 3.73771 3.66589 3.59666 3.53005 3.46608 3.40479 3.34618 3.29029 3.23713 3.18672 3.13909 3.09425 3.05222 3.01301 2.97664 2.94313 2.91249 2.88473 2.85986 2.83789 2.81883 2.8027 2.78948 2.7792 2.77186 2.76745 2.76599 2.76746 2.77188 2.77923 2.78952 2.80274 2.81889 2.83796 2.85993 2.88481 2.91259 2.94324 2.97676 3.01314 3.05235 3.0944 3.13925 3.18689 3.23731 3.29048 3.34638 3.405 3.4663 3.53028 3.5969 3.66614 3.73798 3.81239 3.88935 3.96883 4.0508 4.13523 4.22211 4.31139 4.40306 4.49708 4.59343 4.69208 4.79299 4.89614 5.0015 5.10903 5.21872 5.33052 5.44442 5.56037 5.67835 5.79834 5.9203 6.04419 6.17 6.2977 6.42725 6.55862 6.69179 6.82673 6.96341 7.10181 7.24188 7.38362 7.52699 7.67196 7.8185 7.9666 8.11623 8.26735 8.41995 8.57399 8.72946 8.88634 9.04458 9.20419 9.36512 9.52735 9.69088 9.85566 10.0217 10.1889 10.3574 10.527 10.6978 10.8697 11.0427 11.2168 11.392 11.5683 11.7455 11.9239 12.1032 12.2835 12.4648 12.647 12.8302 13.0142 13.1992 13.3851 13.5718 13.7594 13.9479 14.1372 14.3272 
14.1663 13.975 13.7846 13.5949 13.4062 13.2183 13.0312 12.8451 12.6599 12.4757 12.2923 12.11 11.9286 11.7482 11.5689 11.3905 11.2132 11.037 10.8618 10.6877 10.5148 10.3429 10.1723 10.0028 9.83447 9.66738 9.50152 9.33693 9.17361 9.0116 8.85091 8.69157 8.5336 8.37703 8.22189 8.06818 7.91595 7.76522 7.61601 7.46835 7.32227 7.17779 7.03493 6.89374 6.75423 6.61644 6.48039 6.34611 6.21363 6.08298 5.95418 5.82728 5.70229 5.57925 5.45819 5.33913 5.22212 5.10717 4.99432 4.8836 4.77504 4.66867 4.56452 4.46262 4.363 4.26569 4.17072 4.07813 3.98793 3.90016 3.81485 3.73202 3.65171 3.57393 3.49873 3.42612 3.35613 3.28878 3.22411 3.16213 3.10286 3.04634 2.99258 2.9416 2.89342 2.84806 2.80554 2.76588 2.72909 2.69519 2.66418 2.6361 2.61093 2.58871 2.56943 2.5531 2.53973 2.52933 2.5219 2.51744 2.51596 2.51745 2.52192 2.52936 2.53977 2.55315 2.56949 2.58878 2.61102 2.63619 2.66429 2.6953 2.72921 2.76601 2.80569 2.84822 2.89358 2.94177 2.99277 3.04654 3.10307 3.16235 3.22434 3.28903 3.35638 3.42639 3.49901 3.57423 3.65201 3.73234 3.81518 3.9005 3.98829 4.0785 4.17111 4.26609 4.36341 4.46304 4.56496 4.66912 4.77551 4.88409 4.99482 5.10769 5.22265 5.33969 5.45876 5.57984 5.7029 5.8279 5.95483 6.08364 6.21431 6.34681 6.48111 6.61719 6.755 6.89453 7.03575 7.17862 7.32313 7.46924 7.61692 7.76616 7.91692 8.06917 8.2229 8.37808 8.53468 8.69267 8.85204 9.01276 9.17481 9.33815 9.50278 9.66867 9.83579 10.0041 10.1736 10.3443 10.5162 10.6892 10.8633 11.0384 11.2147 11.392 11.5703 11.7497 11.93 12.1113 12.2936 12.4769 12.661 12.8461 13.0321 13.2189 13.4066 13.5952 13.7846 13.9748 14.1659 