# vtk DataFile Version 2.0
2D Surface
ASCII
DATASET RECTILINEAR_GRID
DIMENSIONS 201 201 1
X_COORDINATES 201 float
0
0.25
0.5
0.75
1
1.25
1.5
1.75
2
2.25
2.5
2.75
3
3.25
3.5
3.75
4
4.25
4.5
4.75
5
5.25
5.5
5.75
6
6.25
6.5
6.75
7
7.25
7.5
7.75
8
8.25
8.5
8.75
9
9.25
9.5
9.75
10
10.25
10.5
10.75
11
11.25
11.5
11.75
12
12.25
12.5
12.75
13
13.25
13.5
13.75
14
14.25
14.5
14.75
15
15.25
15.5
15.75
16
16.25
16.5
16.75
17
17.25
17.5
17.75
18
18.25
18.5
18.75
19
19.25
19.5
19.75
20
20.25
20.5
20.75
21
21.25
21.5
21.75
22
22.25
22.5
22.75
23
23.25
23.5
23.75
24
24.25
24.5
24.75
25
25.25
25.5
25.75
26
26.25
26.5
26.75
27
27.25
27.5
27.75
28
28.25
28.5
28.75
29
29.25
29.5
29.75
30
30.25
30.5
30.75
31
31.25
31.5
31.75
32
32.25
32.5
32.75
33
33.25
33.5
33.75
34
34.25
34.5
34.75
35
35.25
35.5
35.75
36
36.25
36.5
36.75
37
37.25
37.5
37.75
38
38.25
38.5
38.75
39
39.25
39.5
39.75
40
40.25
40.5
40.75
41
41.25
41.5
41.75
42
42.25
42.5
42.75
43
43.25
43.5
43.75
44
44.25
44.5
44.75
45
45.25
45.5
45.75
46
46.25
46.5
46.75
47
47.25
47.5
47.75
48
48.25
48.5
48.75
49
49.25
49.5
49.75
50
Y_COORDINATES 201 float
0
0.25
0.5
0.75
1
1.25
1.5
1.75
2
2.25
2.5
2.75
3
3.25
3.5
3.75
4
4.25
4.5
4.75
5
5.25
5.5
5.75
6
6.25
6.5
6.75
7
7.25
7.5
7.75
8
8.25
8.5
8.75
9
9.25
9.5
9.75
10
10.25
10.5
10.75
11
11.25
11.5
11.75
12
12.25
12.5
12.75
13
13.25
13.5
13.75
14
14.25
14.5
14.75
15
15.25
15.5
15.75
16
16.25
16.5
16.75
17
17.25
17.5
17.75
18
18.25
18.5
18.75
19
19.25
19.5
19.75
20
20.25
20.5
20.75
21
21.25
21.5
21.75
22
22.25
22.5
22.75
23
23.25
23.5
23.75
24
24.25
24.5
24.75
25
25.25
25.5
25.75
26
26.25
26.5
26.75
27
27.25
27.5
27.75
28
28.25
28.5
28.75
29
29.25
29.5
29.75
30
30.25
30.5
30.75
31
31.25
31.5
31.75
32
32.25
32.5
32.75
33
33.25
33.5
33.75
34
34.25
34.5
34.75
35
35.25
35.5
35.75
36
36.25
36.5
36.75
37
37.25
37.5
37.75
38
38.25
38.5
38.75
39
39.25
39.5
39.75
40
40.25
40.5
40.75
41
41.25
41.5
41.75
42
42.25
42.5
42.75
43
43.25
43.5
43.75
44
44.25
44.5
44.75
45
45.25
45.5
45.75
46
46.25
46.5
46.75
47
47.25
47.5
47.75
48
48.25
48.5
48.75
49
49.25
49.5
49.75
50
Z_COORDINATES 1 float
0
POINT_DATA 40401
SCALARS SDValues float
LOOKUP_TABLE default
22.5269 22.3517 22.1761 22.0014 21.8278 21.6551 21.4833 21.3126 21.1428 20.974 20.8063 20.6396 20.4739 20.3092 20.1457 19.9832 19.8219 19.6616 19.5025 19.3446 19.1878 19.0322 18.8779 18.7247 18.5728 18.4222 18.2728 18.1248 17.978 17.8326 17.6886 17.5459 17.4046 17.2647 17.1263 16.9893 16.8538 16.7198 16.5873 16.4563 16.3269 16.1991 16.0729 15.9483 15.8253 15.704 15.5843 15.4664 15.3502 15.2357 15.123 15.0121 14.903 14.7958 14.6903 14.5868 14.4852 14.3854 14.2877 14.1918 14.098 14.0062 13.9163 13.8285 13.7428 13.6592 13.5777 13.4983 13.421 13.3459 13.2729 13.2022 13.1337 13.0674 13.0034 12.9416 12.8821 12.8249 12.77 12.7175 12.6673 12.6194 12.5739 12.5308 12.4901 12.4519 12.416 12.3825 12.3515 12.323 12.2969 12.2732 12.252 12.2333 12.2171 12.2034 12.1922 12.1834 12.1772 12.1734 12.1722 12.1734 12.1772 12.1834 12.1922 12.2034 12.2171 12.2333 12.252 12.2732 12.2969 12.323 12.3515 12.3825 12.416 12.4519 12.4901 12.5308 12.5739 12.6194 12.6673 12.7175 12.77 12.8249 12.8821 12.9416 13.0033 13.0674 13.1337 13.2022 13.2729 13.3459 13.421 13.4982 13.5777 13.6592 13.7428 13.8285 13.9163 14.0061 14.098 14.1918 14.2877 14.3854 14.4852 14.5868 14.6903 14.7958 14.903 15.0121 15.123 15.2357 15.3502 15.4664 15.5843 15.7039 15.8253 15.9482 16.0729 16.1991 16.3269 16.4563 16.5873 16.7198 16.8538 16.9893 17.1263 17.2647 17.4046 17.5459 17.6886 17.8326 17.978 18.1247 18.2728 18.4222 18.5728 18.7247 18.8778 19.0322 19.1878 19.3446 19.5025 19.6616 19.8218 19.9832 20.1456 20.3092 20.4738 20.6395 20.8062 20.974 21.1427 21.3125 21.4832 21.655 21.8276 22.0012 22.1757 22.3512 22.5275 
22.3517 22.1734 21.9973 21.822 21.6475 21.474 21.3014 21.1298 20.9591 20.7894 20.6208 20.4531 20.2865 20.1209 19.9565 19.7931 19.6308 19.4696 19.3095 19.1506 18.9929 18.8364 18.6811 18.527 18.3741 18.2225 18.0722 17.9232 17.7754 17.6291 17.4841 17.3404 17.1982 17.0573 16.9179 16.78 16.6435 16.5086 16.3751 16.2432 16.1128 15.984 15.8569 15.7313 15.6074 15.4851 15.3646 15.2457 15.1286 15.0132 14.8996 14.7878 14.6778 14.5697 14.4634 14.359 14.2565 14.1559 14.0573 13.9607 13.866 13.7734 13.6828 13.5942 13.5077 13.4233 13.3411 13.2609 13.183 13.1072 13.0336 12.9622 12.893 12.8261 12.7615 12.6991 12.639 12.5813 12.5259 12.4728 12.4222 12.3738 12.3279 12.2844 12.2433 12.2046 12.1684 12.1346 12.1033 12.0745 12.0481 12.0242 12.0028 11.9839 11.9676 11.9537 11.9423 11.9335 11.9272 11.9234 11.9222 11.9234 11.9272 11.9335 11.9423 11.9537 11.9676 11.9839 12.0028 12.0242 12.0481 12.0745 12.1033 12.1346 12.1684 12.2046 12.2433 12.2844 12.3279 12.3738 12.4222 12.4728 12.5259 12.5813 12.639 12.6991 12.7615 12.8261 12.893 12.9622 13.0336 13.1072 13.183 13.2609 13.3411 13.4233 13.5077 13.5942 13.6828 13.7734 13.866 13.9607 14.0573 14.1559 14.2565 14.359 14.4634 14.5697 14.6778 14.7878 14.8996 15.0132 15.1286 15.2457 15.3646 15.4851 15.6074 15.7313 15.8569 15.984 16.1128 16.2432 16.3751 16.5086 16.6435 16.78 16.918 17.0574 17.1982 17.3404 17.4841 17.6291 17.7755 17.9232 18.0722 18.2225 18.3741 18.527 18.6811 18.8364 18.9929 19.1507 19.3096 19.4696 19.6308 19.7931 19.9565 20.121 20.2865 20.4532 20.6208 20.7895 20.9592 21.1299 21.3015 21.4741 21.6477 21.8222 21.9976 22.1739 22.3512 
22.1761 21.9973 21.8198 21.6436 21.4682 21.2938 21.1204 20.9478 20.7763 20.6057 20.4361 20.2675 20.1 19.9335 19.768 19.6037 19.4405 19.2783 19.1173 18.9575 18.7988 18.6413 18.485 18.3299 18.1761 18.0235 17.8723 17.7223 17.5736 17.4262 17.2802 17.1356 16.9924 16.8506 16.7102 16.5713 16.4339 16.2979 16.1635 16.0306 15.8993 15.7695 15.6414 15.5149 15.39 15.2668 15.1453 15.0255 14.9075 14.7912 14.6767 14.564 14.4531 14.344 14.2369 14.1316 14.0282 13.9268 13.8273 13.7299 13.6344 13.5409 13.4495 13.3602 13.2729 13.1878 13.1047 13.0239 12.9452 12.8687 12.7944 12.7223 12.6525 12.585 12.5197 12.4568 12.3961 12.3378 12.2819 12.2283 12.1771 12.1284 12.082 12.038 11.9965 11.9575 11.9209 11.8868 11.8551 11.826 11.7994 11.7752 11.7536 11.7346 11.718 11.704 11.6925 11.6836 11.6772 11.6734 11.6721 11.6734 11.6772 11.6836 11.6925 11.704 11.718 11.7346 11.7536 11.7752 11.7994 11.826 11.8551 11.8868 11.9209 11.9575 11.9965 12.038 12.082 12.1284 12.1771 12.2283 12.2819 12.3378 12.3961 12.4568 12.5197 12.585 12.6525 12.7223 12.7944 12.8687 12.9452 13.0239 13.1048 13.1878 13.2729 13.3602 13.4495 13.5409 13.6344 13.7299 13.8274 13.9268 14.0282 14.1316 14.2369 14.3441 14.4531 14.564 14.6767 14.7912 14.9075 15.0256 15.1454 15.2669 15.3901 15.5149 15.6414 15.7696 15.8993 16.0306 16.1635 16.298 16.4339 16.5713 16.7103 16.8506 16.9924 17.1357 17.2803 17.4263 17.5736 17.7223 17.8723 18.0236 18.1762 18.33 18.4851 18.6414 18.7989 18.9576 19.1174 19.2784 19.4406 19.6038 19.7682 19.9336 20.1001 20.2677 20.4362 20.6059 20.7765 20.9481 21.1206 21.2942 21.4687 21.6441 21.8204 21.9976 22.1757 
22.0014 21.822 21.6436 21.4663 21.29 21.1146 20.9402 20.7668 20.5943 20.4228 20.2523 20.0828 19.9143 19.7469 19.5805 19.4152 19.251 19.0879 18.9259 18.7651 18.6055 18.447 18.2897 18.1337 17.9789 17.8253 17.6731 17.5221 17.3724 17.2241 17.0771 16.9315 16.7873 16.6445 16.5032 16.3633 16.2248 16.0879 15.9525 15.8186 15.6863 15.5556 15.4265 15.299 15.1732 15.0491 14.9266 14.8059 14.6869 14.5696 14.4542 14.3406 14.2288 14.1188 14.0107 13.9046 13.8003 13.698 13.5977 13.4994 13.4031 13.3088 13.2165 13.1264 13.0384 12.9524 12.8687 12.7871 12.7076 12.6304 12.5554 12.4827 12.4122 12.344 12.2781 12.2146 12.1534 12.0945 12.038 11.9839 11.9322 11.883 11.8361 11.7917 11.7498 11.7104 11.6734 11.6389 11.607 11.5776 11.5507 11.5263 11.5045 11.4852 11.4685 11.4543 11.4427 11.4337 11.4273 11.4234 11.4221 11.4234 11.4273 11.4337 11.4427 11.4543 11.4685 11.4852 11.5045 11.5263 11.5507 11.5776 11.607 11.639 11.6734 11.7104 11.7498 11.7917 11.8361 11.883 11.9322 11.9839 12.038 12.0945 12.1534 12.2146 12.2782 12.344 12.4122 12.4827 12.5555 12.6304 12.7077 12.7871 12.8687 12.9525 13.0384 13.1264 13.2166 13.3088 13.4031 13.4994 13.5977 13.6981 13.8004 13.9046 14.0108 14.1188 14.2288 14.3406 14.4542 14.5697 14.6869 14.8059 14.9266 15.0491 15.1733 15.2991 15.4266 15.5557 15.6864 15.8187 15.9526 16.088 16.2249 16.3633 16.5032 16.6446 16.7874 16.9316 17.0772 17.2242 17.3725 17.5222 17.6732 17.8254 17.979 18.1338 18.2899 18.4471 18.6056 18.7653 18.9261 19.0881 19.2512 19.4154 19.5807 19.7471 19.9145 20.083 20.2525 20.4231 20.5946 20.7672 20.9407 21.1151 21.2905 21.4668 21.6441 21.8222 22.0012 
21.8278 21.6475 21.4682 21.29 21.1127 20.9364 20.7611 20.5867 20.4133 20.2408 20.0694 19.8989 19.7295 19.5611 19.3938 19.2275 19.0623 18.8983 18.7354 18.5736 18.413 18.2535 18.0953 17.9382 17.7824 17.6279 17.4746 17.3227 17.172 17.0227 16.8747 16.7281 16.5829 16.4391 16.2968 16.1559 16.0165 15.8785 15.7421 15.6073 15.474 15.3423 15.2122 15.0838 14.957 14.8318 14.7084 14.5867 14.4668 14.3486 14.2322 14.1176 14.0049 13.894 13.7851 13.678 13.5728 13.4697 13.3685 13.2693 13.1721 13.077 12.9839 12.893 12.8041 12.7174 12.6329 12.5505 12.4703 12.3924 12.3167 12.2433 12.1721 12.1033 12.0367 11.9726 11.9107 11.8513 11.7943 11.7396 11.6874 11.6376 11.5903 11.5455 11.5032 11.4633 11.426 11.3912 11.3589 11.3292 11.302 11.2774 11.2553 11.2358 11.2189 11.2046 11.1929 11.1838 11.1773 11.1734 11.1721 11.1734 11.1773 11.1838 11.1929 11.2047 11.219 11.2358 11.2553 11.2774 11.302 11.3292 11.3589 11.3912 11.426 11.4633 11.5032 11.5455 11.5904 11.6377 11.6874 11.7396 11.7943 11.8513 11.9108 11.9726 12.0368 12.1033 12.1721 12.2433 12.3167 12.3924 12.4704 12.5505 12.6329 12.7174 12.8041 12.893 12.984 13.077 13.1721 13.2693 13.3685 13.4697 13.5729 13.678 13.7851 13.8941 14.005 14.1177 14.2323 14.3486 14.4668 14.5868 14.7085 14.8319 14.957 15.0838 15.2123 15.3424 15.4741 15.6074 15.7422 15.8786 16.0165 16.156 16.2969 16.4392 16.583 16.7282 16.8748 17.0228 17.1721 17.3228 17.4748 17.628 17.7826 17.9384 18.0954 18.2537 18.4131 18.5738 18.7356 18.8985 19.0626 19.2278 19.394 19.5614 19.7298 19.8992 20.0697 20.2412 20.4137 20.5871 20.7616 20.937 21.1133 21.2905 21.4686 21.6477 21.8276 
21.6551 21.474 21.2938 21.1146 20.9364 20.7591 20.5828 20.4075 20.2331 20.0597 19.8873 19.7159 19.5456 19.3762 19.2079 19.0407 18.8746 18.7095 18.5456 18.3829 18.2213 18.0608 17.9016 17.7436 17.5868 17.4313 17.277 17.124 16.9724 16.822 16.673 16.5254 16.3792 16.2344 16.0911 15.9492 15.8088 15.6698 15.5324 15.3966 15.2623 15.1296 14.9985 14.8691 14.7413 14.6152 14.4908 14.3681 14.2472 14.128 14.0107 13.8952 13.7815 13.6697 13.5598 13.4518 13.3458 13.2417 13.1396 13.0395 12.9415 12.8455 12.7516 12.6598 12.5702 12.4827 12.3973 12.3142 12.2333 12.1546 12.0782 12.004 11.9322 11.8627 11.7955 11.7307 11.6683 11.6082 11.5506 11.4954 11.4427 11.3924 11.3447 11.2994 11.2566 11.2163 11.1786 11.1434 11.1108 11.0808 11.0533 11.0284 11.0062 10.9865 10.9694 10.955 10.9432 10.9339 10.9274 10.9234 10.9221 10.9234 10.9274 10.934 10.9432 10.955 10.9694 10.9865 11.0062 11.0285 11.0533 11.0808 11.1108 11.1435 11.1786 11.2163 11.2566 11.2994 11.3447 11.3925 11.4427 11.4955 11.5506 11.6083 11.6683 11.7307 11.7955 11.8627 11.9322 12.0041 12.0782 12.1546 12.2333 12.3142 12.3974 12.4827 12.5702 12.6599 12.7517 12.8456 12.9415 13.0396 13.1397 13.2417 13.3458 13.4519 13.5599 13.6698 13.7816 13.8952 14.0108 14.1281 14.2473 14.3682 14.4908 14.6153 14.7414 14.8692 14.9986 15.1297 15.2624 15.3967 15.5325 15.6699 15.8089 15.9493 16.0912 16.2346 16.3794 16.5256 16.6732 16.8222 16.9725 17.1242 17.2772 17.4314 17.587 17.7438 17.9018 18.061 18.2215 18.3831 18.5459 18.7098 18.8749 19.041 19.2082 19.3766 19.5459 19.7163 19.8878 20.0602 20.2336 20.408 20.5834 20.7597 20.9369 21.1151 21.2942 21.4741 21.6549 
21.4833 21.3014 21.1204 20.9402 20.7611 20.5828 20.4056 20.2293 20.054 19.8796 19.7062 19.5339 19.3625 19.1922 19.023 18.8548 18.6877 18.5217 18.3568 18.193 18.0304 17.869 17.7087 17.5497 17.3919 17.2354 17.0801 16.9261 16.7735 16.6221 16.4721 16.3235 16.1763 16.0305 15.8861 15.7432 15.6017 15.4618 15.3234 15.1865 15.0512 14.9175 14.7854 14.655 14.5262 14.3991 14.2737 14.15 14.0281 13.908 13.7897 13.6732 13.5586 13.4458 13.335 13.2261 13.1191 13.0141 12.9111 12.8102 12.7112 12.6144 12.5196 12.427 12.3365 12.2482 12.1621 12.0781 11.9965 11.917 11.8399 11.765 11.6925 11.6223 11.5544 11.489 11.4259 11.3653 11.3071 11.2514 11.1981 11.1473 11.0991 11.0533 11.0101 10.9694 10.9313 10.8958 10.8628 10.8324 10.8047 10.7796 10.757 10.7372 10.7199 10.7053 10.6934 10.6841 10.6774 10.6734 10.6721 10.6734 10.6774 10.6841 10.6934 10.7053 10.7199 10.7372 10.7571 10.7796 10.8047 10.8325 10.8628 10.8958 10.9313 10.9694 11.0101 11.0533 11.0991 11.1474 11.1981 11.2514 11.3071 11.3653 11.426 11.489 11.5545 11.6223 11.6925 11.765 11.8399 11.9171 11.9965 12.0782 12.1621 12.2482 12.3366 12.4271 12.5197 12.6145 12.7113 12.8102 12.9112 13.0142 13.1192 13.2261 13.3351 13.4459 13.5587 13.6733 13.7898 13.9081 14.0282 14.1501 14.2738 14.3992 14.5263 14.6551 14.7855 14.9176 15.0513 15.1866 15.3235 15.4619 15.6019 15.7433 15.8862 16.0306 16.1764 16.3237 16.4723 16.6223 16.7736 16.9263 17.0803 17.2356 17.3922 17.55 17.709 17.8692 18.0307 18.1933 18.3571 18.522 18.688 18.8551 19.0233 19.1926 19.363 19.5343 19.7067 19.8801 20.0545 20.2298 20.4061 20.5834 20.7616 20.9406 21.1206 21.3015 21.4832 
21.3126 21.1298 20.9478 20.7668 20.5867 20.4075 20.2293 20.052 19.8757 19.7004 19.5261 19.3528 19.1804 19.0092 18.8389 18.6697 18.5016 18.3346 18.1688 18.004 17.8404 17.678 17.5167 17.3567 17.1979 17.0403 16.884 16.729 16.5753 16.423 16.272 16.1223 15.9741 15.8272 15.6818 15.5379 15.3954 15.2544 15.115 14.9771 14.8408 14.706 14.5729 14.4415 14.3117 14.1836 14.0572 13.9325 13.8096 13.6885 13.5692 13.4518 13.3362 13.2225 13.1107 13.0008 12.8929 12.787 12.6831 12.5812 12.4814 12.3836 12.288 12.1945 12.1032 12.014 11.9271 11.8424 11.7599 11.6797 11.6018 11.5262 11.453 11.3821 11.3136 11.2475 11.1838 11.1225 11.0637 11.0074 10.9536 10.9023 10.8536 10.8073 10.7636 10.7226 10.684 10.6481 10.6148 10.5841 10.5561 10.5307 10.5079 10.4878 10.4704 10.4557 10.4436 10.4342 10.4275 10.4234 10.4221 10.4234 10.4275 10.4342 10.4436 10.4557 10.4704 10.4879 10.508 10.5307 10.5561 10.5842 10.6148 10.6481 10.6841 10.7226 10.7637 10.8073 10.8536 10.9024 10.9537 11.0075 11.0638 11.1226 11.1838 11.2475 11.3136 11.3821 11.453 11.5263 11.6019 11.6798 11.76 11.8424 11.9272 12.0141 12.1033 12.1946 12.2881 12.3837 12.4814 12.5813 12.6831 12.787 12.893 13.0009 13.1107 13.2225 13.3363 13.4519 13.5693 13.6886 13.8097 13.9326 14.0573 14.1837 14.3118 14.4416 14.5731 14.7062 14.8409 14.9772 15.1151 15.2546 15.3956 15.538 15.682 15.8274 15.9742 16.1225 16.2722 16.4232 16.5756 16.7293 16.8843 17.0406 17.1981 17.357 17.517 17.6783 17.8407 18.0043 18.1691 18.335 18.502 18.6701 18.8393 19.0096 19.1809 19.3532 19.5266 19.701 19.8763 20.0526 20.2298 20.408 20.5871 20.7671 20.948 21.1298 21.3125 
21.1428 20.9591 20.7763 20.5943 20.4133 20.2331 20.054 19.8757 19.6985 19.5222 19.3469 19.1726 18.9993 18.827 18.6558 18.4856 18.3165 18.1485 17.9816 17.8159 17.6513 17.4878 17.3256 17.1645 17.0047 16.8461 16.6888 16.5328 16.378 16.2246 16.0726 15.9219 15.7726 15.6247 15.4783 15.3333 15.1898 15.0478 14.9073 14.7684 14.631 14.4952 14.3611 14.2286 14.0978 13.9687 13.8412 13.7156 13.5917 13.4696 13.3493 13.2308 13.1142 12.9996 12.8868 12.776 12.6671 12.5602 12.4554 12.3526 12.2519 12.1533 12.0568 11.9624 11.8702 11.7802 11.6924 11.6069 11.5236 11.4426 11.364 11.2876 11.2137 11.1421 11.0729 11.0061 10.9418 10.8799 10.8205 10.7636 10.7093 10.6574 10.6081 10.5614 10.5173 10.4758 10.4368 10.4005 10.3669 10.3359 10.3075 10.2819 10.2589 10.2385 10.2209 10.206 10.1938 10.1843 10.1775 10.1734 10.1721 10.1734 10.1775 10.1843 10.1938 10.206 10.2209 10.2386 10.2589 10.2819 10.3076 10.3359 10.3669 10.4006 10.4369 10.4758 10.5173 10.5615 10.6082 10.6575 10.7093 10.7637 10.8206 10.8799 10.9418 11.0062 11.0729 11.1421 11.2137 11.2877 11.364 11.4427 11.5237 11.607 11.6925 11.7803 11.8703 11.9625 12.0568 12.1533 12.252 12.3527 12.4555 12.5603 12.6672 12.7761 12.8869 12.9997 13.1143 13.2309 13.3494 13.4697 13.5918 13.7157 13.8414 13.9688 14.0979 14.2288 14.3613 14.4954 14.6312 14.7685 14.9075 15.0479 15.19 15.3335 15.4785 15.6249 15.7728 15.9221 16.0728 16.2249 16.3783 16.533 16.6891 16.8464 17.005 17.1648 17.3259 17.4882 17.6516 17.8162 17.982 18.1489 18.3169 18.486 18.6562 18.8275 18.9998 19.1731 19.3474 19.5227 19.699 19.8763 20.0545 20.2336 20.4137 20.5946 20.7764 20.9591 21.1427 
20.974 20.7894 20.6057 20.4228 20.2408 20.0597 19.8796 19.7004 19.5222 19.3449 19.1686 18.9934 18.8191 18.6458 18.4736 18.3024 18.1323 17.9633 17.7954 17.6287 17.463 17.2986 17.1353 16.9732 16.8123 16.6527 16.4944 16.3373 16.1815 16.0271 15.874 15.7223 15.5719 15.423 15.2755 15.1294 14.9849 14.8418 14.7003 14.5603 14.4219 14.2851 14.1499 14.0164 13.8845 13.7544 13.6259 13.4992 13.3743 13.2512 13.1299 13.0104 12.8928 12.7772 12.6634 12.5516 12.4418 12.334 12.2282 12.1245 12.0228 11.9233 11.8259 11.7306 11.6375 11.5467 11.4581 11.3717 11.2876 11.2059 11.1264 11.0493 10.9746 10.9023 10.8324 10.7649 10.6999 10.6374 10.5774 10.5199 10.465 10.4126 10.3628 10.3156 10.271 10.229 10.1897 10.153 10.119 10.0877 10.059 10.033 10.0098 9.98926 9.97145 9.95637 9.94403 9.93442 9.92756 9.92344 9.92206 9.92344 9.92756 9.93443 9.94403 9.95638 9.97147 9.98928 10.0098 10.0331 10.059 10.0877 10.119 10.153 10.1897 10.2291 10.271 10.3157 10.3629 10.4127 10.4651 10.52 10.5775 10.6375 10.7 10.765 10.8324 10.9023 10.9747 11.0494 11.1265 11.2059 11.2877 11.3718 11.4581 11.5468 11.6376 11.7307 11.8259 11.9234 12.0229 12.1245 12.2283 12.3341 12.4419 12.5517 12.6635 12.7773 12.893 13.0105 13.13 13.2513 13.3744 13.4994 13.6261 13.7545 13.8847 14.0166 14.1501 14.2853 14.4221 14.5605 14.7005 14.842 14.9851 15.1297 15.2757 15.4232 15.5721 15.7225 15.8742 16.0273 16.1818 16.3376 16.4947 16.653 16.8127 16.9735 17.1356 17.2989 17.4634 17.629 17.7958 17.9637 18.1328 18.3029 18.4741 18.6463 18.8196 18.9939 19.1692 19.3455 19.5227 19.7009 19.8801 20.0602 20.2412 20.4231 20.6058 20.7894 20.9739 
20.8063 20.6208 20.4361 20.2523 20.0694 19.8873 19.7062 19.5261 19.3469 19.1686 18.9914 18.8151 18.6398 18.4656 18.2923 18.1202 17.9491 17.779 17.6101 17.4423 17.2757 17.1102 16.9459 16.7828 16.6209 16.4602 16.3008 16.1427 15.9859 15.8304 15.6762 15.5234 15.372 15.222 15.0735 14.9264 14.7807 14.6366 14.494 14.353 14.2135 14.0757 13.9394 13.8048 13.6719 13.5407 13.4112 13.2835 13.1575 13.0334 12.911 12.7905 12.672 12.5553 12.4405 12.3277 12.2169 12.1081 12.0014 11.8967 11.7941 11.6937 11.5953 11.4992 11.4052 11.3135 11.224 11.1368 11.0519 10.9693 10.8891 10.8112 10.7358 10.6627 10.5921 10.5239 10.4583 10.3951 10.3345 10.2764 10.2209 10.168 10.1176 10.0699 10.0248 9.98239 9.94263 9.90555 9.87116 9.83947 9.8105 9.78426 9.76076 9.74 9.72199 9.70674 9.69426 9.68455 9.6776 9.67344 9.67205 9.67344 9.67761 9.68455 9.69427 9.70675 9.722 9.74001 9.76077 9.78428 9.81052 9.8395 9.87118 9.90558 9.94266 9.98243 10.0249 10.0699 10.1177 10.168 10.2209 10.2765 10.3345 10.3952 10.4583 10.524 10.5922 10.6628 10.7358 10.8113 10.8892 10.9694 11.052 11.1369 11.2241 11.3136 11.4053 11.4993 11.5954 11.6938 11.7942 11.8968 12.0015 12.1083 12.217 12.3279 12.4406 12.5554 12.6721 12.7907 12.9112 13.0335 13.1577 13.2836 13.4114 13.5409 13.6721 13.805 13.9396 14.0759 14.2137 14.3532 14.4942 14.6368 14.781 14.9266 15.0737 15.2223 15.3723 15.5237 15.6765 15.8306 15.9862 16.143 16.3011 16.4605 16.6212 16.7831 16.9462 17.1106 17.2761 17.4428 17.6106 17.7795 17.9495 18.1206 18.2928 18.4661 18.6403 18.8156 18.9919 19.1692 19.3474 19.5266 19.7067 19.8877 20.0697 20.2525 20.4362 20.6208 20.8062 
20.6396 20.4531 20.2675 20.0828 19.8989 19.7159 19.5339 19.3528 19.1726 18.9934 18.8151 18.6378 18.4615 18.2863 18.1121 17.9389 17.7668 17.5957 17.4258 17.257 17.0893 16.9227 16.7574 16.5932 16.4303 16.2686 16.1081 15.9489 15.791 15.6345 15.4793 15.3254 15.1729 15.0219 14.8722 14.7241 14.5774 14.4322 14.2885 14.1464 14.0059 13.8669 13.7296 13.5939 13.46 13.3277 13.1971 13.0683 12.9413 12.8161 12.6928 12.5712 12.4516 12.3339 12.2181 12.1044 11.9926 11.8828 11.7751 11.6694 11.5659 11.4645 11.3652 11.2681 11.1733 11.0807 10.9903 10.9022 10.8165 10.7331 10.652 10.5734 10.4971 10.4233 10.352 10.2831 10.2168 10.153 10.0917 10.033 9.97689 9.92339 9.87251 9.82428 9.77871 9.73582 9.69562 9.65813 9.62336 9.59133 9.56204 9.5355 9.51174 9.49075 9.47254 9.45712 9.4445 9.43467 9.42766 9.42344 9.42204 9.42345 9.42766 9.43468 9.44451 9.45713 9.47255 9.49076 9.51176 9.53553 9.56206 9.59135 9.62339 9.65816 9.69565 9.73585 9.77875 9.82432 9.87255 9.92343 9.97694 10.0331 10.0918 10.153 10.2169 10.2832 10.3521 10.4234 10.4972 10.5735 10.6521 10.7332 10.8166 10.9023 10.9904 11.0808 11.1734 11.2682 11.3653 11.4646 11.566 11.6695 11.7752 11.8829 11.9927 12.1045 12.2183 12.3341 12.4518 12.5714 12.6929 12.8163 12.9415 13.0685 13.1973 13.3279 13.4602 13.5941 13.7298 13.8671 14.0061 14.1466 14.2887 14.4324 14.5776 14.7243 14.8725 15.0221 15.1732 15.3257 15.4796 15.6348 15.7914 15.9493 16.1084 16.2689 16.4306 16.5936 16.7578 16.9231 17.0897 17.2574 17.4262 17.5962 17.7672 17.9394 18.1126 18.2868 18.4621 18.6383 18.8156 18.9939 19.1731 19.3532 19.5343 19.7163 19.8992 20.083 20.2676 20.4531 20.6394 
20.4739 20.2865 20.1 19.9143 19.7295 19.5456 19.3625 19.1804 18.9993 18.8191 18.6398 18.4615 18.2843 18.108 17.9328 17.7586 17.5854 17.4133 17.2424 17.0725 16.9038 16.7362 16.5698 16.4046 16.2406 16.0778 15.9163 15.756 15.5971 15.4394 15.2832 15.1282 14.9747 14.8225 14.6718 14.5225 14.3748 14.2285 14.0837 13.9405 13.7989 13.6589 13.5205 13.3837 13.2487 13.1153 12.9837 12.8538 12.7258 12.5995 12.4751 12.3525 12.2318 12.1131 11.9963 11.8815 11.7687 11.6579 11.5492 11.4426 11.338 11.2357 11.1355 11.0375 10.9417 10.8482 10.7569 10.668 10.5814 10.4971 10.4153 10.3358 10.2588 10.1842 10.1121 10.0425 9.9755 9.911 9.84907 9.78974 9.73303 9.67894 9.62751 9.57875 9.53268 9.48932 9.44868 9.41077 9.37562 9.34322 9.3136 9.28677 9.26274 9.24151 9.2231 9.20751 9.19474 9.18481 9.17771 9.17345 9.17203 9.17345 9.17771 9.18481 9.19475 9.20752 9.22311 9.24153 9.26276 9.2868 9.31363 9.34325 9.37565 9.41081 9.44871 9.48936 9.53273 9.5788 9.62756 9.67899 9.73308 9.7898 9.84913 9.91106 9.97556 10.0426 10.1122 10.1843 10.2589 10.3359 10.4153 10.4972 10.5815 10.6681 10.757 10.8483 10.9418 11.0376 11.1356 11.2358 11.3382 11.4427 11.5493 11.658 11.7688 11.8816 11.9965 12.1133 12.232 12.3527 12.4752 12.5997 12.7259 12.854 12.9839 13.1155 13.2489 13.384 13.5207 13.6591 13.7991 13.9408 14.084 14.2287 14.375 14.5228 14.6721 14.8228 14.975 15.1285 15.2835 15.4398 15.5974 15.7564 15.9167 16.0782 16.241 16.405 16.5702 16.7366 16.9042 17.073 17.2428 17.4138 17.5859 17.7591 17.9333 18.1085 18.2848 18.4621 18.6403 18.8196 18.9998 19.1809 19.3629 19.5459 19.7297 19.9145 20.1 20.2865 20.4737 
20.3092 20.1209 19.9335 19.7469 19.5611 19.3762 19.1922 19.0092 18.827 18.6458 18.4656 18.2863 18.108 17.9307 17.7545 17.5792 17.4051 17.232 17.0599 16.889 16.7193 16.5506 16.3832 16.2169 16.0518 15.888 15.7254 15.564 15.404 15.2453 15.0879 14.9319 14.7772 14.624 14.4722 14.3218 14.173 14.0256 13.8797 13.7354 13.5927 13.4516 13.3121 13.1742 13.0381 12.9036 12.7709 12.64 12.5108 12.3835 12.258 12.1344 12.0126 11.8928 11.775 11.6591 11.5453 11.4335 11.3238 11.2162 11.1107 11.0073 10.9061 10.8072 10.7105 10.616 10.5239 10.434 10.3466 10.2615 10.1788 10.0985 10.0207 9.94531 9.87247 9.80215 9.73439 9.6692 9.60661 9.54663 9.4893 9.43462 9.38263 9.33333 9.28675 9.2429 9.2018 9.16347 9.12792 9.09516 9.06521 9.03807 9.01377 8.9923 8.97367 8.9579 8.94499 8.93494 8.92776 8.92345 8.92202 8.92346 8.92777 8.93495 8.945 8.95791 8.97369 8.99232 9.01379 9.0381 9.06524 9.09519 9.12796 9.16351 9.20184 9.24295 9.2868 9.33338 9.38268 9.43468 9.48936 9.54669 9.60667 9.66927 9.73446 9.80223 9.87254 9.94539 10.0207 10.0986 10.1788 10.2616 10.3467 10.4341 10.524 10.6161 10.7106 10.8073 10.9063 11.0074 11.1108 11.2163 11.3239 11.4337 11.5455 11.6593 11.7752 11.893 12.0128 12.1345 12.2582 12.3837 12.511 12.6402 12.7711 12.9039 13.0383 13.1745 13.3123 13.4518 13.5929 13.7357 13.88 14.0258 14.1732 14.3221 14.4725 14.6243 14.7776 14.9322 15.0882 15.2456 15.4044 15.5644 15.7258 15.8884 16.0522 16.2173 16.3836 16.5511 16.7197 16.8895 17.0604 17.2324 17.4055 17.5797 17.755 17.9312 18.1085 18.2868 18.4661 18.6463 18.8275 19.0096 19.1926 19.3765 19.5613 19.747 19.9335 20.1209 20.3091 
20.1457 19.9565 19.768 19.5805 19.3938 19.2079 19.023 18.8389 18.6558 18.4736 18.2923 18.1121 17.9328 17.7545 17.5772 17.4009 17.2257 17.0516 16.8785 16.7065 16.5357 16.366 16.1975 16.0301 15.864 15.6991 15.5354 15.373 15.2118 15.052 14.8936 14.7364 14.5807 14.4263 14.2734 14.1219 13.972 13.8235 13.6765 13.5311 13.3873 13.245 13.1044 12.9655 12.8282 12.6927 12.5588 12.4268 12.2965 12.1681 12.0415 11.9168 11.794 11.6732 11.5543 11.4373 11.3225 11.2096 11.0989 10.9902 10.8837 10.7794 10.6772 10.5773 10.4796 10.3843 10.2912 10.2004 10.1121 10.0261 9.94254 9.86143 9.78279 9.70665 9.63303 9.56197 9.49347 9.42758 9.36431 9.30368 9.24571 9.19043 9.13786 9.08801 9.04091 8.99657 8.955 8.91624 8.88028 8.84715 8.81685 8.7894 8.76482 8.7431 8.72426 8.70831 8.69524 8.68508 8.67782 8.67346 8.67201 8.67346 8.67782 8.68509 8.69526 8.70832 8.72428 8.74312 8.76484 8.78943 8.81688 8.84718 8.88032 8.91628 8.95505 8.99661 9.04096 9.08806 9.13791 9.19049 9.24577 9.30374 9.36438 9.42765 9.49355 9.56205 9.63312 9.70673 9.78288 9.86152 9.94264 10.0262 10.1122 10.2006 10.2913 10.3844 10.4798 10.5774 10.6774 10.7795 10.8839 10.9904 11.099 11.2098 11.3226 11.4375 11.5544 11.6733 11.7942 11.917 12.0417 12.1683 12.2967 12.427 12.5591 12.6929 12.8284 12.9657 13.1047 13.2453 13.3875 13.5314 13.6768 13.8238 13.9723 14.1223 14.2737 14.4267 14.581 14.7368 14.8939 15.0524 15.2122 15.3734 15.5358 15.6995 15.8644 16.0306 16.1979 16.3665 16.5362 16.707 16.879 17.052 17.2262 17.4014 17.5777 17.755 17.9333 18.1125 18.2928 18.474 18.6562 18.8393 19.0233 19.2082 19.394 19.5806 19.7681 19.9564 20.1456 
19.9832 19.7931 19.6037 19.4152 19.2275 19.0407 18.8548 18.6697 18.4856 18.3024 18.1202 17.9389 17.7586 17.5792 17.4009 17.2236 17.0474 16.8722 16.6981 16.525 16.3531 16.1824 16.0128 15.8443 15.6771 15.5111 15.3463 15.1828 15.0206 14.8597 14.7001 14.5419 14.385 14.2295 14.0755 13.9229 13.7718 13.6222 13.4741 13.3276 13.1826 13.0392 12.8975 12.7574 12.6191 12.4824 12.3475 12.2143 12.0829 11.9534 11.8257 11.6999 11.576 11.4541 11.3341 11.2161 11.1002 10.9863 10.8745 10.7648 10.6573 10.5519 10.4488 10.3479 10.2492 10.1529 10.0589 9.9672 9.87792 9.79105 9.70662 9.62466 9.54519 9.46824 9.39383 9.322 9.25276 9.18615 9.12218 9.06088 9.00227 8.94637 8.89321 8.8428 8.79516 8.75031 8.70828 8.66907 8.63269 8.59918 8.56853 8.54077 8.51589 8.49392 8.47486 8.45872 8.44551 8.43522 8.42787 8.42346 8.422 8.42347 8.42788 8.43523 8.44552 8.45874 8.47488 8.49394 8.51592 8.54079 8.56856 8.59921 8.63273 8.66911 8.70832 8.75036 8.79521 8.84285 8.89327 8.94643 9.00233 9.06095 9.12225 9.18623 9.25284 9.32208 9.39392 9.46833 9.54529 9.62476 9.70673 9.79116 9.87804 9.96732 10.059 10.153 10.2494 10.348 10.4489 10.5521 10.6574 10.7649 10.8746 10.9864 11.1003 11.2163 11.3343 11.4542 11.5762 11.7001 11.8259 11.9536 12.0831 12.2145 12.3477 12.4826 12.6193 12.7577 12.8978 13.0395 13.1829 13.3278 13.4744 13.6225 13.7721 13.9232 14.0758 14.2299 14.3853 14.5422 14.7005 14.8601 15.021 15.1832 15.3467 15.5115 15.6775 15.8448 16.0132 16.1828 16.3536 16.5255 16.6985 16.8727 17.0479 17.2241 17.4014 17.5797 17.759 17.9393 18.1206 18.3028 18.486 18.6701 18.8551 19.0409 19.2277 19.4153 19.6037 19.793 19.9831 
19.8219 19.6308 19.4405 19.251 19.0623 18.8746 18.6877 18.5016 18.3165 18.1323 17.9491 17.7668 17.5854 17.4051 17.2257 17.0474 16.8701 16.6938 16.5186 16.3446 16.1716 15.9998 15.8291 15.6595 15.4912 15.3241 15.1582 14.9936 14.8303 14.6683 14.5076 14.3482 14.1902 14.0336 13.8785 13.7247 13.5725 13.4217 13.2725 13.1248 12.9787 12.8342 12.6914 12.5502 12.4107 12.2728 12.1368 12.0025 11.87 11.7393 11.6105 11.4836 11.3586 11.2356 11.1145 10.9954 10.8784 10.7634 10.6506 10.5399 10.4313 10.3249 10.2207 10.1188 10.0192 9.9219 9.82692 9.73432 9.64411 9.55634 9.47102 9.38818 9.30786 9.23009 9.15487 9.08226 9.01226 8.94491 8.88023 8.81825 8.75898 8.70245 8.64868 8.59769 8.54951 8.50415 8.46163 8.42196 8.38517 8.35126 8.32025 8.29216 8.26699 8.24476 8.22548 8.20915 8.19577 8.18537 8.17793 8.17347 8.17199 8.17347 8.17794 8.18538 8.19579 8.20916 8.2255 8.24479 8.26702 8.29219 8.32029 8.3513 8.38521 8.422 8.46167 8.5042 8.54957 8.59775 8.64874 8.70251 8.75905 8.81832 8.88031 8.94499 9.01235 9.08235 9.15497 9.23018 9.30797 9.38829 9.47113 9.55645 9.64423 9.73444 9.82705 9.92203 10.0194 10.119 10.2209 10.3251 10.4314 10.54 10.6507 10.7636 10.8786 10.9956 11.1147 11.2358 11.3588 11.4838 11.6107 11.7396 11.8702 12.0027 12.137 12.2731 12.4109 12.5504 12.6916 12.8345 12.979 13.1251 13.2728 13.4221 13.5728 13.7251 13.8788 14.034 14.1906 14.3486 14.5079 14.6686 14.8307 14.994 15.1587 15.3245 15.4917 15.66 15.8295 16.0002 16.1721 16.345 16.5191 16.6943 16.8705 17.0478 17.2262 17.4055 17.5859 17.7672 17.9495 18.1327 18.3169 18.502 18.6879 18.8748 19.0625 19.2511 19.4405 19.6307 19.8217 