# vtk DataFile Version 2.0
2D Surface
ASCII
DATASET RECTILINEAR_GRID
DIMENSIONS 201 201 1
X_COORDINATES 201 float
0
0.25
0.5
0.75
1
1.25
1.5
1.75
2
2.25
2.5
2.75
3
3.25
3.5
3.75
4
4.25
4.5
4.75
5
5.25
5.5
5.75
6
6.25
6.5
6.75
7
7.25
7.5
7.75
8
8.25
8.5
8.75
9
9.25
9.5
9.75
10
10.25
10.5
10.75
11
11.25
11.5
11.75
12
12.25
12.5
12.75
13
13.25
13.5
13.75
14
14.25
14.5
14.75
15
15.25
15.5
15.75
16
16.25
16.5
16.75
17
17.25
17.5
17.75
18
18.25
18.5
18.75
19
19.25
19.5
19.75
20
20.25
20.5
20.75
21
21.25
21.5
21.75
22
22.25
22.5
22.75
23
23.25
23.5
23.75
24
24.25
24.5
24.75
25
25.25
25.5
25.75
26
26.25
26.5
26.75
27
27.25
27.5
27.75
28
28.25
28.5
28.75
29
29.25
29.5
29.75
30
30.25
30.5
30.75
31
31.25
31.5
31.75
32
32.25
32.5
32.75
33
33.25
33.5
33.75
34
34.25
34.5
34.75
35
35.25
35.5
35.75
36
36.25
36.5
36.75
37
37.25
37.5
37.75
38
38.25
38.5
38.75
39
39.25
39.5
39.75
40
40.25
40.5
40.75
41
41.25
41.5
41.75
42
42.25
42.5
42.75
43
43.25
43.5
43.75
44
44.25
44.5
44.75
45
45.25
45.5
45.75
46
46.25
46.5
46.75
47
47.25
47.5
47.75
48
48.25
48.5
48.75
49
49.25
49.5
49.75
50
Y_COORDINATES 201 float
0
0.25
0.5
0.75
1
1.25
1.5
1.75
2
2.25
2.5
2.75
3
3.25
3.5
3.75
4
4.25
4.5
4.75
5
5.25
5.5
5.75
6
6.25
6.5
6.75
7
7.25
7.5
7.75
8
8.25
8.5
8.75
9
9.25
9.5
9.75
10
10.25
10.5
10.75
11
11.25
11.5
11.75
12
12.25
12.5
12.75
13
13.25
13.5
13.75
14
14.25
14.5
14.75
15
15.25
15.5
15.75
16
16.25
16.5
16.75
17
17.25
17.5
17.75
18
18.25
18.5
18.75
19
19.25
19.5
19.75
20
20.25
20.5
20.75
21
21.25
21.5
21.75
22
22.25
22.5
22.75
23
23.25
23.5
23.75
24
24.25
24.5
24.75
25
25.25
25.5
25.75
26
26.25
26.5
26.75
27
27.25
27.5
27.75
28
28.25
28.5
28.75
29
29.25
29.5
29.75
30
30.25
30.5
30.75
31
31.25
31.5
31.75
32
32.25
32.5
32.75
33
33.25
33.5
33.75
34
34.25
34.5
34.75
35
35.25
35.5
35.75
36
36.25
36.5
36.75
37
37.25
37.5
37.75
38
38.25
38.5
38.75
39
39.25
39.5
39.75
40
40.25
40.5
40.75
41
41.25
41.5
41.75
42
42.25
42.5
42.75
43
43.25
43.5
43.75
44
44.25
44.5
44.75
45
45.25
45.5
45.75
46
46.25
46.5
46.75
47
47.25
47.5
47.75
48
48.25
48.5
48.75
49
49.25
49.5
49.75
50
Z_COORDINATES 1 float
0
POINT_DATA 40401
SCALARS SDValues float
LOOKUP_TABLE default
19.6985 19.5244 19.3486 19.1738 19.0001 18.8274 18.6556 18.4848 18.3151 18.1463 17.9785 17.8118 17.6461 17.4814 17.3179 17.1554 16.9941 16.8338 16.6747 16.5168 16.36 16.2044 16.0501 15.8969 15.745 15.5944 15.445 15.297 15.1502 15.0048 14.8608 14.7181 14.5768 14.4369 14.2985 14.1615 14.026 13.892 13.7595 13.6285 13.4991 13.3713 13.245 13.1204 12.9974 12.8761 12.7565 12.6386 12.5224 12.4079 12.2952 12.1843 12.0752 11.9679 11.8625 11.759 11.6573 11.5576 11.4598 11.364 11.2702 11.1783 11.0885 11.0007 10.915 10.8314 10.7498 10.6704 10.5931 10.518 10.4451 10.3744 10.3058 10.2396 10.1755 10.1137 10.0543 9.99707 9.94219 9.88964 9.83944 9.79159 9.74611 9.70301 9.66232 9.62402 9.58815 9.5547 9.52369 9.49513 9.46903 9.44538 9.42421 9.40551 9.3893 9.37557 9.36433 9.35558 9.34933 9.34559 9.34433 9.34558 9.34933 9.35558 9.36433 9.37556 9.38929 9.40551 9.42421 9.44538 9.46902 9.49513 9.52369 9.5547 9.58814 9.62402 9.66231 9.70301 9.7461 9.79158 9.83943 9.88964 9.94218 9.99706 10.0543 10.1137 10.1755 10.2396 10.3058 10.3744 10.4451 10.518 10.5931 10.6704 10.7498 10.8314 10.915 11.0007 11.0885 11.1783 11.2702 11.364 11.4598 11.5576 11.6573 11.759 11.8625 11.9679 12.0752 12.1843 12.2952 12.4079 12.5223 12.6385 12.7565 12.8761 12.9974 13.1204 13.245 13.3713 13.4991 13.6285 13.7595 13.892 14.026 14.1615 14.2985 14.4369 14.5768 14.718 14.8607 15.0048 15.1502 15.2969 15.445 15.5943 15.745 15.8969 16.05 16.2044 16.36 16.5167 16.6747 16.8338 16.994 17.1553 17.3178 17.4814 17.646 17.8117 17.9784 18.1461 18.3149 18.4847 18.6554 18.8271 18.9998 19.1734 19.3479 19.5233 19.6997 
19.5244 19.3449 19.1691 18.9939 18.8195 18.646 18.4735 18.3018 18.1312 17.9615 17.7929 17.6252 17.4586 17.2931 17.1286 16.9652 16.8029 16.6417 16.4817 16.3228 16.1651 16.0085 15.8532 15.6991 15.5462 15.3946 15.2443 15.0953 14.9476 14.8012 14.6562 14.5126 14.3703 14.2295 14.0901 13.9521 13.8157 13.6807 13.5472 13.4153 13.285 13.1562 13.029 12.9034 12.7795 12.6573 12.5367 12.4179 12.3007 12.1854 12.0718 11.96 11.85 11.7418 11.6356 11.5312 11.4287 11.3281 11.2295 11.1328 11.0382 10.9455 10.8549 10.7664 10.6799 10.5955 10.5132 10.4331 10.3551 10.2793 10.2057 10.1343 10.0652 9.99825 9.93361 9.87125 9.8112 9.75346 9.69806 9.645 9.59431 9.546 9.50007 9.45656 9.41546 9.37679 9.34056 9.30678 9.27547 9.24662 9.22025 9.19637 9.17499 9.1561 9.13972 9.12586 9.11451 9.10567 9.09936 9.09557 9.09431 9.09557 9.09936 9.10567 9.11451 9.12586 9.13973 9.1561 9.17499 9.19638 9.22026 9.24662 9.27547 9.30678 9.34056 9.37679 9.41546 9.45656 9.50008 9.546 9.59431 9.64501 9.69806 9.75347 9.8112 9.87126 9.93362 9.99826 10.0652 10.1343 10.2057 10.2793 10.3551 10.4331 10.5132 10.5955 10.6799 10.7664 10.8549 10.9455 11.0382 11.1328 11.2295 11.3281 11.4287 11.5312 11.6356 11.7419 11.85 11.96 12.0718 12.1854 12.3008 12.4179 12.5367 12.6573 12.7795 12.9035 13.029 13.1562 13.285 13.4153 13.5473 13.6807 13.8157 13.9522 14.0901 14.2295 14.3703 14.5126 14.6562 14.8013 14.9476 15.0953 15.2444 15.3947 15.5463 15.6991 15.8532 16.0086 16.1651 16.3228 16.4817 16.6418 16.8029 16.9652 17.1287 17.2931 17.4587 17.6253 17.793 17.9616 18.1313 18.302 18.4737 18.6463 18.8199 18.9944 19.1698 19.3461 19.5233 
19.3486 19.1691 18.9914 18.8152 18.64 18.4656 18.2922 18.1197 17.9482 17.7776 17.6081 17.4395 17.272 17.1055 16.9401 16.7757 16.6125 16.4504 16.2894 16.1296 15.9709 15.8134 15.6571 15.502 15.3482 15.1956 15.0444 14.8944 14.7457 14.5983 14.4523 14.3077 14.1645 14.0227 13.8823 13.7434 13.606 13.47 13.3356 13.2027 13.0714 12.9417 12.8135 12.687 12.5621 12.439 12.3174 12.1977 12.0796 11.9633 11.8488 11.7361 11.6252 11.5162 11.409 11.3037 11.2004 11.0989 10.9995 10.902 10.8065 10.713 10.6216 10.5323 10.445 10.3599 10.2769 10.196 10.1173 10.0408 9.96653 9.89447 9.82466 9.75712 9.69186 9.62891 9.56827 9.50998 9.45404 9.40047 9.34928 9.30049 9.25412 9.21017 9.16867 9.12961 9.09302 9.0589 9.02727 8.99814 8.97151 8.94738 8.92578 8.90671 8.89016 8.87615 8.86469 8.85576 8.84939 8.84556 8.84429 8.84556 8.84939 8.85577 8.86469 8.87616 8.89017 8.90671 8.92579 8.94739 8.97151 8.99815 9.02728 9.05891 9.09303 9.12962 9.16868 9.21018 9.25413 9.30051 9.34929 9.40048 9.45405 9.51 9.56829 9.62893 9.69188 9.75714 9.82468 9.89449 9.96655 10.0408 10.1173 10.196 10.2769 10.3599 10.4451 10.5323 10.6217 10.7131 10.8065 10.902 10.9995 11.099 11.2004 11.3038 11.409 11.5162 11.6252 11.7361 11.8488 11.9634 12.0797 12.1977 12.3175 12.439 12.5622 12.6871 12.8136 12.9417 13.0715 13.2028 13.3357 13.4701 13.6061 13.7435 13.8824 14.0228 14.1646 14.3078 14.4524 14.5984 14.7458 14.8945 15.0445 15.1958 15.3483 15.5022 15.6572 15.8135 15.971 16.1297 16.2896 16.4506 16.6127 16.776 16.9403 17.1058 17.2723 17.4398 17.6084 17.778 17.9486 18.1202 18.2928 18.4663 18.6408 18.8162 18.9925 19.1698 19.3479 
19.1738 18.9939 18.8152 18.6378 18.4616 18.2863 18.112 17.9386 17.7661 17.5946 17.4241 17.2547 17.0862 16.9188 16.7524 16.5872 16.423 16.2599 16.0979 15.9371 15.7775 15.619 15.4618 15.3057 15.1509 14.9974 14.8451 14.6941 14.5445 14.3962 14.2492 14.1036 13.9594 13.8166 13.6752 13.5353 13.3969 13.26 13.1246 12.9907 12.8584 12.7277 12.5986 12.4711 12.3453 12.2212 12.0987 11.978 11.859 11.7417 11.6263 11.5127 11.4009 11.2909 11.1829 11.0767 10.9724 10.8702 10.7698 10.6715 10.5752 10.4809 10.3887 10.2985 10.2105 10.1246 10.0408 9.95917 9.87975 9.80254 9.72755 9.65481 9.58434 9.51615 9.45027 9.38671 9.32549 9.26663 9.21014 9.15604 9.10435 9.05508 9.00824 8.96386 8.92194 8.88249 8.84553 8.81107 8.77912 8.74969 8.72278 8.69842 8.67659 8.65732 8.64061 8.62646 8.61487 8.60586 8.59942 8.59555 8.59427 8.59555 8.59942 8.60586 8.61488 8.62646 8.64062 8.65733 8.6766 8.69843 8.7228 8.7497 8.77913 8.81109 8.84555 8.88251 8.92196 8.96388 9.00827 9.0551 9.10437 9.15607 9.21017 9.26666 9.32552 9.38674 9.4503 9.51619 9.58438 9.65485 9.72759 9.80258 9.87979 9.95922 10.0408 10.1246 10.2105 10.2986 10.3887 10.4809 10.5752 10.6715 10.7699 10.8702 10.9725 11.0768 11.1829 11.291 11.4009 11.5127 11.6264 11.7418 11.8591 11.9781 12.0988 12.2212 12.3454 12.4712 12.5987 12.7278 12.8585 12.9908 13.1247 13.2601 13.397 13.5355 13.6754 13.8167 13.9595 14.1037 14.2493 14.3963 14.5447 14.6943 14.8453 14.9976 15.1511 15.306 15.462 15.6193 15.7778 15.9374 16.0982 16.2602 16.4233 16.5875 16.7528 16.9192 17.0867 17.2552 17.4247 17.5952 17.7668 17.9393 18.1128 18.2873 18.4627 18.639 18.8162 18.9943 19.1733 
19.0001 18.8195 18.64 18.4616 18.2843 18.108 17.9327 17.7583 17.585 17.4126 17.2411 17.0707 16.9013 16.733 16.5656 16.3994 16.2343 16.0702 15.9073 15.7455 15.5849 15.4255 15.2672 15.1102 14.9544 14.7999 14.6467 14.4947 14.344 14.1947 14.0467 13.9002 13.755 13.6112 13.4688 13.3279 13.1885 13.0506 12.9142 12.7793 12.6461 12.5144 12.3843 12.2558 12.129 12.0039 11.8805 11.7588 11.6388 11.5207 11.4043 11.2897 11.177 11.0661 10.9571 10.8501 10.7449 10.6418 10.5406 10.4414 10.3442 10.2491 10.156 10.0651 9.97621 9.8895 9.80495 9.72259 9.64243 9.56449 9.48879 9.41536 9.34421 9.27537 9.20885 9.14467 9.08285 9.02341 8.96636 8.91173 8.85952 8.80976 8.76246 8.71762 8.67528 8.63543 8.59809 8.56328 8.531 8.50127 8.47409 8.44947 8.42742 8.40795 8.39107 8.37677 8.36506 8.35596 8.34945 8.34554 8.34424 8.34555 8.34945 8.35596 8.36507 8.37678 8.39108 8.40797 8.42744 8.44949 8.47411 8.50129 8.53102 8.5633 8.59812 8.63545 8.6753 8.71765 8.76249 8.80979 8.85956 8.91177 8.9664 9.02345 9.08289 9.14471 9.20889 9.27541 9.34426 9.41541 9.48884 9.56454 9.64248 9.72265 9.80502 9.88957 9.97628 10.0651 10.1561 10.2491 10.3443 10.4414 10.5406 10.6418 10.745 10.8502 10.9572 11.0662 11.1771 11.2898 11.4044 11.5208 11.639 11.7589 11.8806 12.004 12.1292 12.256 12.3844 12.5145 12.6462 12.7795 12.9144 13.0508 13.1887 13.3281 13.469 13.6114 13.7552 13.9004 14.047 14.1949 14.3443 14.4949 14.6469 14.8002 14.9547 15.1105 15.2676 15.4258 15.5853 15.7459 15.9077 16.0706 16.2347 16.3999 16.5662 16.7335 16.9019 17.0714 17.2418 17.4133 17.5858 17.7593 17.9337 18.1091 18.2854 18.4626 18.6408 18.8198 18.9997 
18.8274 18.646 18.4656 18.2863 18.108 17.9307 17.7544 17.5791 17.4048 17.2314 17.059 16.8877 16.7173 16.548 16.3797 16.2125 16.0464 15.8814 15.7175 15.5548 15.3932 15.2327 15.0735 14.9155 14.7587 14.6032 14.4489 14.296 14.1443 13.994 13.845 13.6974 13.5512 13.4064 13.2631 13.1212 12.9808 12.8418 12.7045 12.5686 12.4343 12.3016 12.1705 12.0411 11.9133 11.7872 11.6628 11.5401 11.4192 11.3001 11.1828 11.0672 10.9536 10.8418 10.7319 10.6239 10.5178 10.4138 10.3117 10.2116 10.1136 10.0176 9.92369 9.8319 9.74224 9.65473 9.5694 9.48626 9.40534 9.32667 9.25025 9.17611 9.10428 9.03477 8.9676 8.90279 8.84036 8.78033 8.72271 8.66753 8.6148 8.56454 8.51675 8.47146 8.42869 8.38843 8.35071 8.31554 8.28293 8.25289 8.22542 8.20055 8.17827 8.1586 8.14153 8.12709 8.11526 8.10605 8.09948 8.09553 8.09422 8.09554 8.09948 8.10606 8.11527 8.1271 8.14155 8.15861 8.17829 8.20057 8.22545 8.25291 8.28295 8.31557 8.35074 8.38846 8.42872 8.4715 8.51679 8.56458 8.61485 8.66758 8.72276 8.78038 8.84041 8.90284 8.96765 9.03483 9.10434 9.17618 9.25032 9.32674 9.40542 9.48634 9.56948 9.65482 9.74233 9.83199 9.92378 10.0177 10.1137 10.2117 10.3118 10.4139 10.5179 10.624 10.732 10.8419 10.9537 11.0674 11.1829 11.3002 11.4194 11.5403 11.663 11.7874 11.9135 12.0413 12.1707 12.3018 12.4345 12.5688 12.7047 12.8421 12.981 13.1214 13.2633 13.4067 13.5515 13.6977 13.8453 13.9943 14.1446 14.2963 14.4493 14.6036 14.7591 14.9159 15.0739 15.2332 15.3936 15.5552 15.718 15.8819 16.047 16.2131 16.3804 16.5487 16.7181 16.8885 17.0599 17.2323 17.4058 17.5802 17.7555 17.9318 18.1091 18.2872 18.4663 18.6462 18.8271 
18.6556 18.4735 18.2922 18.112 17.9327 17.7544 17.5772 17.4009 17.2256 17.0512 16.8779 16.7056 16.5342 16.364 16.1947 16.0265 15.8595 15.6935 15.5286 15.3648 15.2023 15.0408 14.8806 14.7216 14.5638 14.4073 14.252 14.0981 13.9454 13.7941 13.6441 13.4955 13.3482 13.2024 13.0581 12.9151 12.7737 12.6338 12.4954 12.3585 12.2232 12.0895 11.9574 11.827 11.6982 11.5711 11.4457 11.3221 11.2002 11.08 10.9617 10.8453 10.7306 10.6179 10.507 10.3981 10.2912 10.1862 10.0832 9.98221 9.8833 9.78645 9.6917 9.59907 9.50858 9.42026 9.33413 9.25021 9.16852 9.08909 9.01193 8.93708 8.86455 8.79435 8.72652 8.66107 8.59802 8.53739 8.4792 8.42346 8.37019 8.31941 8.27114 8.22539 8.18217 8.14149 8.10338 8.06785 8.03489 8.00454 7.97679 7.95165 7.92914 7.90926 7.89201 7.87741 7.86546 7.85616 7.84951 7.84552 7.8442 7.84553 7.84952 7.85616 7.86547 7.87742 7.89203 7.90927 7.92916 7.95167 7.97681 8.00457 8.03493 8.06788 8.10342 8.14153 8.18221 8.22543 8.27119 8.31946 8.37024 8.42351 8.47926 8.53745 8.59809 8.66114 8.72659 8.79443 8.86462 8.93716 9.01202 9.08918 9.16861 9.2503 9.33423 9.42036 9.50869 9.59918 9.69181 9.78657 9.88342 9.98234 10.0833 10.1863 10.2913 10.3983 10.5072 10.618 10.7308 10.8454 10.9619 11.0802 11.2003 11.3222 11.4459 11.5713 11.6984 11.8272 11.9576 12.0897 12.2234 12.3587 12.4956 12.634 12.774 12.9154 13.0584 13.2027 13.3486 13.4958 13.6444 13.7944 13.9458 14.0985 14.2524 14.4077 14.5643 14.7221 14.8811 15.0414 15.2028 15.3654 15.5292 15.6941 15.8601 16.0273 16.1955 16.3648 16.5351 16.7065 16.8789 17.0522 17.2266 17.402 17.5783 17.7555 17.9337 18.1128 18.2927 18.4736 18.6553 
18.4848 18.3018 18.1197 17.9386 17.7583 17.5791 17.4009 17.2236 17.0473 16.872 16.6977 16.5244 16.3521 16.1808 16.0106 15.8415 15.6734 15.5064 15.3405 15.1758 15.0122 14.8498 14.6886 14.5285 14.3698 14.2122 14.0559 13.9009 13.7472 13.5949 13.4439 13.2942 13.146 12.9992 12.8538 12.7098 12.5674 12.4264 12.287 12.1491 12.0128 11.878 11.7449 11.6135 11.4837 11.3556 11.2292 11.1045 10.9816 10.8605 10.7412 10.6238 10.5082 10.3945 10.2827 10.1728 10.0649 9.959 9.85509 9.75322 9.65341 9.55568 9.46006 9.36657 9.27524 9.18609 9.09915 9.01443 8.93195 8.85176 8.77385 8.69827 8.62502 8.55414 8.48563 8.41953 8.35584 8.2946 8.23581 8.17951 8.12569 8.07439 8.02562 7.97939 7.93572 7.89462 7.85611 7.8202 7.7869 7.75622 7.72818 7.70278 7.68002 7.65993 7.6425 7.62774 7.61566 7.60626 7.59955 7.59552 7.59417 7.59552 7.59955 7.60627 7.61567 7.62776 7.64252 7.65995 7.68005 7.7028 7.72821 7.75626 7.78694 7.82024 7.85616 7.89467 7.93577 7.97944 8.02568 8.07445 8.12576 8.17957 8.23588 8.29467 8.35592 8.41961 8.48571 8.55422 8.62511 8.69836 8.77395 8.85186 8.93206 9.01454 9.09926 9.18621 9.27537 9.3667 9.4602 9.55582 9.65355 9.75337 9.85524 9.95916 10.0651 10.173 10.2828 10.3947 10.5084 10.624 10.7414 10.8607 10.9818 11.1047 11.2294 11.3558 11.4839 11.6137 11.7452 11.8783 12.013 12.1494 12.2873 12.4267 12.5677 12.7101 12.8541 12.9995 13.1464 13.2946 13.4443 13.5953 13.7477 13.9014 14.0564 14.2127 14.3703 14.5291 14.6891 14.8504 15.0128 15.1764 15.3412 15.5071 15.6741 15.8423 16.0115 16.1817 16.353 16.5254 16.6987 16.8731 17.0484 17.2247 17.402 17.5801 17.7593 17.9393 18.1202 18.3019 18.4846 
18.3151 18.1312 17.9482 17.7661 17.585 17.4048 17.2256 17.0473 16.8701 16.6938 16.5185 16.3442 16.1709 15.9987 15.8274 15.6573 15.4882 15.3202 15.1534 14.9876 14.823 14.6596 14.4974 14.3363 14.1765 14.0179 13.8606 13.7046 13.5499 13.3965 13.2445 13.0938 12.9445 12.7966 12.6502 12.5052 12.3617 12.2197 12.0792 11.9403 11.803 11.6672 11.5331 11.4006 11.2698 11.1406 11.0132 10.8876 10.7637 10.6415 10.5213 10.4028 10.2862 10.1716 10.0588 9.94796 9.83911 9.73226 9.62742 9.52463 9.42391 9.32528 9.22878 9.13442 9.04223 8.95224 8.86446 8.77893 8.69566 8.61468 8.53602 8.45969 8.38571 8.31412 8.24493 8.17815 8.11382 8.05196 7.99257 7.93568 7.88131 7.82948 7.7802 7.73348 7.68935 7.64782 7.6089 7.57261 7.53895 7.50795 7.4796 7.45393 7.43093 7.41062 7.393 7.37808 7.36587 7.35637 7.34958 7.34551 7.34415 7.34551 7.34959 7.35638 7.36589 7.3781 7.39302 7.41064 7.43096 7.45396 7.47964 7.50799 7.539 7.57265 7.60895 7.64787 7.68941 7.73354 7.78026 7.82955 7.88138 7.93576 7.99265 8.05204 8.11391 8.17825 8.24502 8.31422 8.38582 8.4598 8.53613 8.6148 8.69578 8.77906 8.86459 8.95237 9.04237 9.13457 9.22893 9.32544 9.42407 9.5248 9.62759 9.73244 9.8393 9.94816 10.059 10.1718 10.2864 10.403 10.5215 10.6418 10.7639 10.8878 11.0135 11.1409 11.27 11.4009 11.5334 11.6675 11.8033 11.9406 12.0796 12.2201 12.3621 12.5056 12.6506 12.797 12.9449 13.0942 13.2449 13.397 13.5504 13.7051 13.8612 14.0185 14.1771 14.3369 14.498 14.6603 14.8237 14.9884 15.1541 15.321 15.4891 15.6582 15.8284 15.9996 16.1719 16.3452 16.5195 16.6949 16.8711 17.0484 17.2266 17.4057 17.5858 17.7667 17.9486 18.1313 18.3148 
18.1463 17.9615 17.7776 17.5946 17.4126 17.2314 17.0512 16.872 16.6938 16.5165 16.3402 16.1649 15.9907 15.8174 15.6452 15.4741 15.304 15.135 14.9671 14.8004 14.6348 14.4703 14.307 14.145 13.9841 13.8245 13.6662 13.5091 13.3534 13.1989 13.0458 12.8941 12.7438 12.5949 12.4474 12.3013 12.1568 12.0137 11.8722 11.7322 11.5938 11.457 11.3219 11.1883 11.0565 10.9263 10.7979 10.6712 10.5463 10.4231 10.3018 10.1824 10.0648 9.94913 9.83538 9.72359 9.61377 9.50596 9.40017 9.29645 9.1948 9.09527 8.99786 8.90262 8.80956 8.7187 8.63008 8.54372 8.45964 8.37787 8.29843 8.22134 8.14662 8.07431 8.00442 7.93696 7.87197 7.80947 7.74947 7.69199 7.63705 7.58467 7.53487 7.48766 7.44306 7.40109 7.36175 7.32507 7.29105 7.25971 7.23106 7.2051 7.18185 7.16132 7.14351 7.12843 7.11609 7.10648 7.09962 7.0955 7.09413 7.0955 7.09962 7.10649 7.1161 7.12845 7.14353 7.16135 7.18188 7.20514 7.2311 7.25975 7.2911 7.32512 7.36181 7.40115 7.44313 7.48773 7.53494 7.58475 7.63713 7.69207 7.74956 7.80956 7.87207 7.93707 8.00452 8.07442 8.14674 8.22146 8.29856 8.378 8.45978 8.54387 8.63023 8.71886 8.80972 8.90278 8.99803 9.09544 9.19499 9.29664 9.40037 9.50616 9.61398 9.72381 9.83561 9.94936 10.065 10.1826 10.3021 10.4234 10.5465 10.6715 10.7982 10.9266 11.0568 11.1887 11.3222 11.4574 11.5942 11.7326 11.8726 12.0141 12.1572 12.3018 12.4478 12.5953 12.7443 12.8946 13.0463 13.1995 13.3539 13.5097 13.6668 13.8251 13.9848 14.1456 14.3077 14.471 14.6355 14.8012 14.9679 15.1359 15.3049 15.475 15.6462 15.8184 15.9917 16.166 16.3413 16.5176 16.6948 16.8731 17.0522 17.2323 17.4133 17.5952 17.7779 17.9616 18.146 
17.9785 17.7929 17.6081 17.4241 17.2411 17.059 16.8779 16.6977 16.5185 16.3402 16.163 15.9867 15.8114 15.6372 15.4639 15.2918 15.1207 14.9507 14.7818 14.614 14.4474 14.2819 14.1176 13.9545 13.7926 13.632 13.4726 13.3145 13.1577 13.0022 12.848 12.6952 12.5439 12.3939 12.2453 12.0982 11.9526 11.8085 11.6659 11.5249 11.3854 11.2476 11.1113 10.9767 10.8438 10.7126 10.5831 10.4554 10.3294 10.2053 10.083 9.9625 9.84391 9.72723 9.61248 9.49969 9.3889 9.28011 9.17337 9.06869 8.96611 8.86564 8.76732 8.67118 8.57723 8.4855 8.39602 8.30882 8.22391 8.14133 8.06109 7.98323 7.90776 7.83471 7.76411 7.69596 7.6303 7.56714 7.50651 7.44843 7.39291 7.33998 7.28964 7.24193 7.19685 7.15443 7.11466 7.07758 7.04319 7.01151 6.98254 6.9563 6.9328 6.91204 6.89403 6.87879 6.86631 6.85659 6.84965 6.84549 6.8441 6.8455 6.84966 6.85661 6.86632 6.87881 6.89406 6.91207 6.93283 6.95634 6.98259 7.01156 7.04325 7.07764 7.11473 7.15449 7.19692 7.24201 7.28973 7.34006 7.393 7.44852 7.50661 7.56725 7.63041 7.69607 7.76423 7.83484 7.9079 7.98337 8.06124 8.14148 8.22406 8.30898 8.39619 8.48567 8.5774 8.67136 8.76751 8.86584 8.96631 9.0689 9.17359 9.28034 9.38913 9.49994 9.61273 9.72749 9.84417 9.96277 10.0833 10.2056 10.3298 10.4557 10.5835 10.713 10.8442 10.9771 11.1117 11.2479 11.3858 11.5253 11.6663 11.8089 11.9531 12.0987 12.2458 12.3944 12.5444 12.6958 12.8486 13.0027 13.1583 13.3151 13.4732 13.6326 13.7933 13.9552 14.1183 14.2827 14.4482 14.6149 14.7827 14.9516 15.1216 15.2928 15.4649 15.6382 15.8124 15.9877 16.164 16.3413 16.5195 16.6987 16.8788 17.0598 17.2418 17.4246 17.6083 17.7929 17.9783 
17.8118 17.6252 17.4395 17.2547 17.0707 16.8877 16.7056 16.5244 16.3442 16.1649 15.9867 15.8094 15.6331 15.4579 15.2836 15.1105 14.9384 14.7673 14.5974 14.4286 14.2609 14.0944 13.9291 13.7649 13.602 13.4403 13.2799 13.1207 12.9628 12.8063 12.651 12.4972 12.3447 12.1937 12.0441 11.8959 11.7492 11.604 11.4604 11.3183 11.1777 11.0388 10.9015 10.7658 10.6319 10.4996 10.369 10.2403 10.1132 9.98804 9.86468 9.74317 9.62355 9.50585 9.39009 9.2763 9.1645 9.05473 8.94701 8.84137 8.73783 8.63642 8.53717 8.44011 8.34525 8.25264 8.16228 8.07422 7.98847 7.90507 7.82402 7.74537 7.66914 7.59534 7.524 7.45515 7.3888 7.32498 7.26371 7.20501 7.1489 7.0954 7.04452 6.9963 6.95073 6.90784 6.86764 6.83015 6.79539 6.76335 6.73406 6.70753 6.68377 6.66278 6.64457 6.62915 6.61653 6.60671 6.59969 6.59548 6.59408 6.59549 6.5997 6.60673 6.61655 6.62918 6.6446 6.66281 6.68381 6.70758 6.73411 6.7634 6.79544 6.83022 6.86771 6.90791 6.95081 6.99638 7.04461 7.09549 7.149 7.20512 7.26382 7.3251 7.38892 7.45527 7.52413 7.59548 7.66928 7.74552 7.82418 7.90523 7.98864 8.0744 8.16247 8.25282 8.34545 8.44031 8.53738 8.63664 8.73805 8.8416 8.94725 9.05498 9.16476 9.27656 9.39036 9.50613 9.62384 9.74347 9.86499 9.98836 10.1136 10.2406 10.3694 10.5 10.6322 10.7662 10.9019 11.0392 11.1782 11.3187 11.4608 11.6045 11.7497 11.8964 12.0446 12.1942 12.3453 12.4978 12.6516 12.8069 12.9635 13.1213 13.2805 13.441 13.6027 13.7657 13.9299 14.0952 14.2618 14.4295 14.5983 14.7683 14.9393 15.1115 15.2847 15.4589 15.6342 15.8104 15.9877 16.166 16.3452 16.5253 16.7064 16.8884 17.0713 17.2551 17.4397 17.6252 17.8115 
17.6461 17.4586 17.272 17.0862 16.9013 16.7173 16.5342 16.3521 16.1709 15.9907 15.8114 15.6331 15.4558 15.2796 15.1043 14.9301 14.757 14.585 14.414 14.2441 14.0754 13.9079 13.7415 13.5763 13.4123 13.2495 13.088 12.9278 12.7688 12.6112 12.4549 12.3 12.1464 11.9943 11.8436 11.6944 11.5466 11.4003 11.2556 11.1124 10.9708 10.8307 10.6923 10.5556 10.4206 10.2872 10.1556 10.0257 9.89765 9.77139 9.64697 9.52442 9.40376 9.28502 9.16823 9.05342 8.94061 8.82983 8.72112 8.61449 8.50998 8.40761 8.30742 8.20942 8.11364 8.02012 7.92888 7.83994 7.75334 7.66909 7.58723 7.50777 7.43075 7.35619 7.28411 7.21453 7.14749 7.08299 7.02107 6.96174 6.90502 6.85094 6.79951 6.75076 6.70469 6.66133 6.62069 6.58278 6.54763 6.51524 6.48562 6.45879 6.43476 6.41353 6.39512 6.37953 6.36676 6.35683 6.34973 6.34548 6.34406 6.34548 6.34975 6.35685 6.36678 6.37955 6.39515 6.41357 6.4348 6.45884 6.48567 6.51529 6.54769 6.58285 6.62076 6.66141 6.70477 6.75085 6.79961 6.85104 6.90513 6.96185 7.02119 7.08312 7.14762 7.21467 7.28425 7.35634 7.43091 7.50794 7.5874 7.66927 7.75352 7.84013 7.92908 8.02033 8.11386 8.20964 8.30764 8.40785 8.51023 8.61474 8.72138 8.8301 8.94089 9.0537 9.16852 9.28532 9.40407 9.52474 9.64731 9.77174 9.89801 10.0261 10.156 10.2876 10.421 10.556 10.6928 10.8312 10.9712 11.1128 11.2561 11.4008 11.5471 11.6949 11.8442 11.9949 12.147 12.3006 12.4556 12.6119 12.7695 12.9285 13.0887 13.2503 13.4131 13.5771 13.7423 13.9087 14.0763 14.2451 14.4149 14.5859 14.758 14.9311 15.1054 15.2806 15.4569 15.6342 15.8124 15.9917 16.1718 16.353 16.535 16.718 16.9018 17.0866 17.2721 17.4586 17.6458 
17.4814 17.2931 17.1055 16.9188 16.733 16.548 16.364 16.1808 15.9987 15.8174 15.6372 15.4579 15.2796 15.1023 14.926 14.7508 14.5766 14.4035 14.2315 14.0607 13.8909 13.7223 13.5548 13.3885 13.2235 13.0597 12.8971 12.7358 12.5757 12.417 12.2597 12.1036 11.949 11.7958 11.644 11.4936 11.3447 11.1974 11.0515 10.9072 10.7645 10.6234 10.4839 10.3461 10.2099 10.0755 9.9428 9.81186 9.6827 9.55536 9.42987 9.30625 9.18453 9.06474 8.94691 8.83106 8.71722 8.60543 8.4957 8.38808 8.28258 8.17923 8.07807 7.97912 7.88241 7.78797 7.69582 7.60599 7.51852 7.43341 7.35071 7.27044 7.19262 7.11727 7.04443 6.97412 6.90636 6.84118 6.77859 6.71861 6.66128 6.60661 6.55461 6.50532 6.45874 6.4149 6.3738 6.33547 6.29992 6.26716 6.23721 6.21008 6.18577 6.1643 6.14568 6.12991 6.117 6.10695 6.09978 6.09547 6.09404 6.09548 6.09979 6.10697 6.11702 6.12994 6.14572 6.16434 6.18582 6.21013 6.23727 6.26723 6.29999 6.33554 6.37388 6.41498 6.45883 6.50542 6.55472 6.60672 6.6614 6.71874 6.77871 6.84131 6.9065 6.97427 7.04459 7.11744 7.19279 7.27061 7.35089 7.4336 7.51871 7.6062 7.69604 7.78819 7.88264 7.97936 8.07832 8.17949 8.28284 8.38835 8.49598 8.60572 8.71752 8.83137 8.94723 9.06507 9.18487 9.3066 9.43023 9.55574 9.68309 9.81225 9.94321 10.0759 10.2104 10.3465 10.4844 10.6239 10.765 10.9077 11.0521 11.1979 11.3453 11.4942 11.6446 11.7964 11.9496 12.1043 12.2603 12.4177 12.5765 12.7365 12.8978 13.0604 13.2243 13.3894 13.5557 13.7232 13.8918 14.0616 14.2325 14.4045 14.5776 14.7518 14.927 15.1033 15.2806 15.4589 15.6381 15.8184 15.9995 16.1817 16.3647 16.5486 16.7334 16.9191 17.1056 17.293 17.4812 
17.3179 17.1286 16.9401 16.7524 16.5656 16.3797 16.1947 16.0106 15.8274 15.6452 15.4639 15.2836 15.1043 14.926 14.7487 14.5725 14.3973 14.2231 14.0501 13.8781 13.7073 13.5376 13.3691 13.2018 13.0356 12.8707 12.7071 12.5447 12.3835 12.2237 12.0653 11.9082 11.7524 11.5981 11.4452 11.2937 11.1437 10.9953 10.8483 10.7029 10.5591 10.4168 10.2762 10.1373 10 9.8645 9.73069 9.59865 9.4684 9.33997 9.21339 9.08869 8.9659 8.84504 8.72614 8.60924 8.49436 8.38153 8.27078 8.16214 8.05563 7.9513 7.84915 7.74924 7.65157 7.55619 7.46312 7.37238 7.28402 7.19804 7.11448 7.03337 6.95474 6.8786 6.80499 6.73392 6.66543 6.59954 6.53627 6.47564 6.41768 6.3624 6.30983 6.25999 6.21288 6.16855 6.12699 6.08822 6.05227 6.01914 5.98884 5.9614 5.93681 5.91509 5.89626 5.8803 5.86724 5.85708 5.84982 5.84546 5.84401 5.84547 5.84983 5.8571 5.86727 5.88034 5.89629 5.91514 5.93686 5.96145 5.9889 6.0192 6.05234 6.0883 6.12707 6.16864 6.21298 6.26009 6.30994 6.36252 6.4178 6.47577 6.53641 6.59969 6.66559 6.73408 6.80515 6.87877 6.95492 7.03356 7.11468 7.19824 7.28423 7.3726 7.46335 7.55643 7.65182 7.74949 7.84942 7.95157 8.05591 8.16243 8.27108 8.38184 8.49468 8.60957 8.72648 8.84539 8.96626 9.08906 9.21378 9.34037 9.46881 9.59907 9.73113 9.86495 10.0005 10.1378 10.2767 10.4173 10.5596 10.7034 10.8488 10.9958 11.1443 11.2943 11.4458 11.5987 11.7531 11.9088 12.066 12.2245 12.3843 12.5454 12.7079 12.8715 13.0365 13.2026 13.37 13.5385 13.7082 13.8791 14.0511 14.2241 14.3983 14.5735 14.7497 14.927 15.1053 15.2846 15.4649 15.6461 15.8283 16.0114 16.1954 16.3803 16.5661 16.7527 16.9402 17.1285 17.3176 
17.1554 16.9652 16.7757 16.5872 16.3994 16.2125 16.0265 15.8415 15.6573 15.4741 15.2918 15.1105 14.9301 14.7508 14.5725 14.3952 14.2189 14.0437 13.8696 13.6966 13.5247 13.354 13.1844 13.016 12.8488 12.6828 12.518 12.3545 12.1923 12.0314 11.8718 11.7136 11.5567 11.4013 11.2472 11.0947 10.9436 10.7939 10.6459 10.4993 10.3544 10.211 10.0693 9.92925 9.79087 9.65421 9.51928 9.38612 9.25476 9.12523 8.99755 8.87175 8.74786 8.62592 8.50595 8.38797 8.27203 8.15815 8.04635 7.93668 7.82915 7.72381 7.62067 7.51977 7.42113 7.3248 7.23078 7.13912 7.04985 6.96298 6.87855 6.79659 6.71712 6.64018 6.56577 6.49394 6.42471 6.3581 6.29413 6.23283 6.17422 6.11833 6.06517 6.01476 5.96713 5.92228 5.88025 5.84104 5.80467 5.77115 5.74051 5.71275 5.68787 5.6659 5.64685 5.63071 5.6175 5.60721 5.59987 5.59546 5.59399 5.59547 5.59988 5.60723 5.61752 5.63074 5.64689 5.66595 5.68793 5.7128 5.74057 5.77123 5.80475 5.84112 5.88034 5.92238 5.96723 6.01487 6.06529 6.11846 6.17436 6.23297 6.29428 6.35825 6.42487 6.49411 6.56595 6.64036 6.71732 6.79679 6.87876 6.9632 7.05007 7.13936 7.23102 7.32505 7.42139 7.52004 7.62095 7.7241 7.82945 7.93699 8.04667 8.15848 8.27237 8.38832 8.50631 8.62629 8.74825 8.87214 8.99795 9.12565 9.2552 9.38657 9.51974 9.65468 9.79136 9.92975 10.0698 10.2116 10.3549 10.4999 10.6464 10.7945 10.9442 11.0953 11.2479 11.4019 11.5574 11.7143 11.8725 12.0321 12.1931 12.3553 12.5188 12.6836 12.8496 13.0169 13.1853 13.3549 13.5257 13.6976 13.8706 14.0447 14.2199 14.3962 14.5735 14.7518 14.9311 15.1114 15.2927 15.4749 15.6581 15.8422 16.0272 16.213 16.3998 16.5874 16.7758 16.9651 17.1552 
16.9941 16.8029 16.6125 16.423 16.2343 16.0464 15.8595 15.6734 15.4882 15.304 15.1207 14.9384 14.757 14.5766 14.3973 14.2189 14.0416 13.8654 13.6902 13.5161 13.3432 13.1713 13.0007 12.8312 12.6628 12.4957 12.3299 12.1653 12.002 11.8399 11.6792 11.5199 11.3619 11.2053 11.0502 10.8965 10.7442 10.5935 10.4443 10.2966 10.1505 10.006 9.86316 9.72196 9.58244 9.44464 9.30859 9.1743 9.04181 8.91115 8.78236 8.65545 8.53045 8.40741 8.28634 8.16728 8.05026 7.9353 7.82245 7.71173 7.60316 7.49679 7.39263 7.29073 7.19111 7.09379 6.99882 6.90622 6.81602 6.72825 6.64293 6.5601 6.47978 6.40201 6.3268 6.25419 6.18419 6.11685 6.05217 5.99019 5.93092 5.87439 5.82063 5.76965 5.72146 5.6761 5.63358 5.59392 5.55713 5.52322 5.49222 5.46413 5.43896 5.41674 5.39745 5.38112 5.36775 5.35735 5.34991 5.34545 5.34397 5.34546 5.34993 5.35737 5.36778 5.38116 5.39749 5.41678 5.43902 5.46419 5.49229 5.5233 5.55721 5.59401 5.63368 5.67621 5.72158 5.76976 5.82075 5.87453 5.93106 5.99033 6.05233 6.11701 6.18437 6.25437 6.32699 6.40221 6.47999 6.56031 6.64315 6.72848 6.81626 6.90647 6.99908 7.09406 7.19138 7.29101 7.39293 7.49709 7.60348 7.71205 7.82279 7.93565 8.05062 8.16765 8.28672 8.4078 8.53086 8.65586 8.78278 8.9116 9.04227 9.17477 9.30907 9.44514 9.58295 9.72248 9.8637 10.0066 10.1511 10.2972 10.4449 10.5941 10.7449 10.8971 11.0508 11.206 11.3626 11.5206 11.68 11.8407 12.0027 12.1661 12.3307 12.4966 12.6637 12.8321 13.0016 13.1723 13.3441 13.5171 13.6912 13.8664 14.0426 14.2199 14.3982 14.5776 14.7579 14.9393 15.1216 15.3048 15.489 15.674 15.86 16.0469 16.2346 16.4231 16.6125 16.8028 16.9938 