# vtk DataFile Version 2.0
2D Surface
ASCII
DATASET RECTILINEAR_GRID
DIMENSIONS 201 201 1
X_COORDINATES 201 float
0
0.25
0.5
0.75
1
1.25
1.5
1.75
2
2.25
2.5
2.75
3
3.25
3.5
3.75
4
4.25
4.5
4.75
5
5.25
5.5
5.75
6
6.25
6.5
6.75
7
7.25
7.5
7.75
8
8.25
8.5
8.75
9
9.25
9.5
9.75
10
10.25
10.5
10.75
11
11.25
11.5
11.75
12
12.25
12.5
12.75
13
13.25
13.5
13.75
14
14.25
14.5
14.75
15
15.25
15.5
15.75
16
16.25
16.5
16.75
17
17.25
17.5
17.75
18
18.25
18.5
18.75
19
19.25
19.5
19.75
20
20.25
20.5
20.75
21
21.25
21.5
21.75
22
22.25
22.5
22.75
23
23.25
23.5
23.75
24
24.25
24.5
24.75
25
25.25
25.5
25.75
26
26.25
26.5
26.75
27
27.25
27.5
27.75
28
28.25
28.5
28.75
29
29.25
29.5
29.75
30
30.25
30.5
30.75
31
31.25
31.5
31.75
32
32.25
32.5
32.75
33
33.25
33.5
33.75
34
34.25
34.5
34.75
35
35.25
35.5
35.75
36
36.25
36.5
36.75
37
37.25
37.5
37.75
38
38.25
38.5
38.75
39
39.25
39.5
39.75
40
40.25
40.5
40.75
41
41.25
41.5
41.75
42
42.25
42.5
42.75
43
43.25
43.5
43.75
44
44.25
44.5
44.75
45
45.25
45.5
45.75
46
46.25
46.5
46.75
47
47.25
47.5
47.75
48
48.25
48.5
48.75
49
49.25
49.5
49.75
50
Y_COORDINATES 201 float
0
0.25
0.5
0.75
1
1.25
1.5
1.75
2
2.25
2.5
2.75
3
3.25
3.5
3.75
4
4.25
4.5
4.75
5
5.25
5.5
5.75
6
6.25
6.5
6.75
7
7.25
7.5
7.75
8
8.25
8.5
8.75
9
9.25
9.5
9.75
10
10.25
10.5
10.75
11
11.25
11.5
11.75
12
12.25
12.5
12.75
13
13.25
13.5
13.75
14
14.25
14.5
14.75
15
15.25
15.5
15.75
16
16.25
16.5
16.75
17
17.25
17.5
17.75
18
18.25
18.5
18.75
19
19.25
19.5
19.75
20
20.25
20.5
20.75
21
21.25
21.5
21.75
22
22.25
22.5
22.75
23
23.25
23.5
23.75
24
24.25
24.5
24.75
25
25.25
25.5
25.75
26
26.25
26.5
26.75
27
27.25
27.5
27.75
28
28.25
28.5
28.75
29
29.25
29.5
29.75
30
30.25
30.5
30.75
31
31.25
31.5
31.75
32
32.25
32.5
32.75
33
33.25
33.5
33.75
34
34.25
34.5
34.75
35
35.25
35.5
35.75
36
36.25
36.5
36.75
37
37.25
37.5
37.75
38
38.25
38.5
38.75
39
39.25
39.5
39.75
40
40.25
40.5
40.75
41
41.25
41.5
41.75
42
42.25
42.5
42.75
43
43.25
43.5
43.75
44
44.25
44.5
44.75
45
45.25
45.5
45.75
46
46.25
46.5
46.75
47
47.25
47.5
47.75
48
48.25
48.5
48.75
49
49.25
49.5
49.75
50
Z_COORDINATES 1 float
0
POINT_DATA 40401
SCALARS SDValues float
LOOKUP_TABLE default
14.0416 13.8698 13.6936 13.5186 13.3447 13.1719 13.0001 12.8293 12.6595 12.4907 12.3229 12.1562 11.9905 11.8259 11.6623 11.4998 11.3385 11.1782 11.0191 10.8612 10.7044 10.5488 10.3944 10.2413 10.0894 9.93874 9.78938 9.64132 9.49457 9.34917 9.20511 9.06244 8.92115 8.78128 8.64285 8.50586 8.37036 8.23634 8.10384 7.97287 7.84346 7.71563 7.58939 7.46478 7.3418 7.22048 7.10084 6.98291 6.8667 6.75224 6.63954 6.52864 6.41954 6.31228 6.20687 6.10333 6.00169 5.90197 5.80418 5.70835 5.61451 5.52267 5.43284 5.34506 5.25934 5.17571 5.09417 5.01476 4.93749 4.86238 4.78945 4.71871 4.65019 4.5839 4.51986 4.45809 4.3986 4.34141 4.28653 4.23398 4.18377 4.13592 4.09045 4.04735 4.00665 3.96836 3.93248 3.89904 3.86803 3.83947 3.81336 3.78972 3.76854 3.74985 3.73363 3.7199 3.70866 3.69992 3.69367 3.68992 3.68867 3.68992 3.69367 3.69992 3.70866 3.7199 3.73363 3.74984 3.76854 3.78971 3.81336 3.83946 3.86802 3.89903 3.93248 3.96835 4.00664 4.04734 4.09044 4.13592 4.18376 4.23397 4.28652 4.34139 4.39859 4.45808 4.51985 4.58389 4.65017 4.7187 4.78943 4.86236 4.93747 5.01474 5.09416 5.17569 5.25932 5.34504 5.43282 5.52264 5.61449 5.70833 5.80416 5.90194 6.00166 6.1033 6.20684 6.31225 6.41951 6.52861 6.63951 6.75221 6.86667 6.98288 7.10081 7.22044 7.34176 7.46474 7.58935 7.71559 7.84342 7.97283 8.10379 8.23629 8.37031 8.50581 8.64279 8.78123 8.92109 9.06237 9.20505 9.3491 9.4945 9.64124 9.7893 9.93866 10.0893 10.2412 10.3943 10.5487 10.7043 10.861 11.019 11.1781 11.3383 11.4997 11.6621 11.8257 11.9903 12.156 12.3227 12.4905 12.6592 12.829 12.9997 13.1714 13.3441 13.5177 13.6922 13.8677 14.044 
13.8698 13.6881 13.5127 13.3378 13.1635 12.9901 12.8176 12.646 12.4754 12.3057 12.1371 11.9694 11.8028 11.6373 11.4728 11.3094 11.1471 10.986 10.8259 10.667 10.5093 10.3528 10.1975 10.0434 9.89051 9.73891 9.5886 9.43958 9.29187 9.1455 9.00049 8.85685 8.7146 8.57377 8.43438 8.29643 8.15997 8.02499 7.89154 7.75962 7.62926 7.50048 7.3733 7.24774 7.12383 7.00158 6.88102 6.76216 6.64504 6.52967 6.41607 6.30427 6.19428 6.08614 5.97986 5.87546 5.77296 5.6724 5.57378 5.47713 5.38247 5.28983 5.19922 5.11067 5.02419 4.9398 4.85753 4.7774 4.69943 4.62363 4.55002 4.47863 4.40947 4.34256 4.27792 4.21556 4.15551 4.09777 4.04236 3.98931 3.93862 3.8903 3.84438 3.80087 3.75977 3.7211 3.68487 3.65109 3.61978 3.59093 3.56456 3.54068 3.5193 3.50041 3.48404 3.47017 3.45882 3.44998 3.44367 3.43989 3.43862 3.43989 3.44367 3.44999 3.45882 3.47017 3.48404 3.50042 3.5193 3.54069 3.56457 3.59094 3.61978 3.6511 3.68488 3.72111 3.75978 3.80088 3.84439 3.89031 3.93863 3.98932 4.04238 4.09778 4.15552 4.21557 4.27793 4.34258 4.40949 4.47865 4.55004 4.62364 4.69944 4.77742 4.85755 4.93982 5.0242 5.11069 5.19924 5.28985 5.3825 5.47715 5.5738 5.67242 5.77299 5.87548 5.97988 6.08617 6.19431 6.3043 6.4161 6.5297 6.64507 6.7622 6.88105 7.00161 7.12387 7.24778 7.37334 7.50052 7.6293 7.75967 7.89159 8.02504 8.16002 8.29649 8.43443 8.57383 8.71466 8.85691 9.00055 9.14557 9.29194 9.43965 9.58867 9.739 9.8906 10.0435 10.1976 10.3529 10.5094 10.6671 10.826 10.9861 11.1473 11.3096 11.473 11.6375 11.803 11.9696 12.1373 12.306 12.4757 12.6463 12.818 12.9906 13.1642 13.3387 13.5141 13.6904 13.8676 
13.6936 13.5127 13.3345 13.1585 12.9835 12.8093 12.636 12.4635 12.2921 12.1216 11.952 11.7835 11.616 11.4495 11.2841 11.1198 10.9566 10.7945 10.6335 10.4737 10.315 10.1575 10.0013 9.8462 9.69238 9.53982 9.38854 9.23855 9.08988 8.94254 8.79655 8.65194 8.50872 8.36692 8.22655 8.08764 7.9502 7.81426 7.67984 7.54696 7.41564 7.2859 7.15776 7.03125 6.90639 6.7832 6.6617 6.54191 6.42386 6.30756 6.19305 6.08034 5.96946 5.86042 5.75325 5.64798 5.54462 5.4432 5.34373 5.24625 5.15077 5.05731 4.9659 4.87656 4.7893 4.70416 4.62115 4.54028 4.46159 4.38509 4.3108 4.23874 4.16893 4.10139 4.03614 3.97318 3.91255 3.85426 3.79832 3.74475 3.69356 3.64477 3.5984 3.55445 3.51295 3.47389 3.4373 3.40319 3.37156 3.34242 3.31579 3.29167 3.27007 3.25099 3.23445 3.22044 3.20897 3.20005 3.19368 3.18985 3.18858 3.18985 3.19368 3.20006 3.20898 3.22045 3.23446 3.251 3.27008 3.29168 3.3158 3.34244 3.37157 3.40321 3.43732 3.47391 3.51297 3.55448 3.59843 3.6448 3.69359 3.74478 3.79835 3.85429 3.91259 3.97322 4.03618 4.10143 4.16898 4.23879 4.31085 4.38514 4.46164 4.54034 4.6212 4.70422 4.78936 4.87662 4.96596 5.05738 5.15083 5.24632 5.3438 5.44327 5.5447 5.64806 5.75334 5.86051 5.96955 6.08043 6.19315 6.30766 6.42396 6.54201 6.6618 6.78331 6.9065 7.03137 7.15788 7.28602 7.41577 7.54709 7.67998 7.81441 7.95035 8.0878 8.22672 8.36709 8.5089 8.65213 8.79674 8.94274 9.09009 9.23877 9.38877 9.54007 9.69264 9.84647 10.0015 10.1578 10.3153 10.474 10.6339 10.7949 10.957 11.1203 11.2846 11.4501 11.6166 11.7841 11.9527 12.1223 12.2929 12.4645 12.6371 12.8106 12.9851 13.1605 13.3368 13.5141 13.6922 
13.5186 13.3378 13.1585 12.981 12.8048 12.6296 12.4554 12.2821 12.1097 11.9383 11.7679 11.5985 11.43 11.2627 11.0963 10.9311 10.7669 10.6039 10.4419 10.2811 10.1215 9.96308 9.80583 9.64981 9.49502 9.34148 9.18922 9.03825 8.8886 8.74028 8.59332 8.44772 8.30352 8.16074 8.01939 7.87949 7.74108 7.60416 7.46876 7.3349 7.20261 7.0719 6.94279 6.81532 6.6895 6.56535 6.4429 6.32216 6.20317 6.08595 5.97051 5.85687 5.74508 5.63513 5.52707 5.42091 5.31667 5.21437 5.11405 5.01572 4.9194 4.82512 4.73289 4.64275 4.55471 4.46879 4.38502 4.30341 4.22399 4.14678 4.07179 3.99905 3.92858 3.8604 3.79451 3.73096 3.66974 3.61088 3.55439 3.50029 3.4486 3.39933 3.3525 3.30811 3.26619 3.22675 3.18979 3.15533 3.12338 3.09395 3.06704 3.04268 3.02086 3.00158 2.98487 2.97072 2.95914 2.95012 2.94368 2.93982 2.93853 2.93982 2.94369 2.95013 2.95915 2.97073 2.98488 3.0016 3.02087 3.0427 3.06707 3.09397 3.12341 3.15536 3.18982 3.22678 3.26623 3.30815 3.35254 3.39938 3.44865 3.50034 3.55444 3.61093 3.6698 3.73102 3.79458 3.86046 3.92865 3.99913 4.07187 4.14686 4.22407 4.3035 4.38511 4.46888 4.5548 4.64285 4.733 4.82522 4.91951 5.01583 5.11417 5.2145 5.31679 5.42104 5.52721 5.63527 5.74522 5.85703 5.97066 6.08611 6.20334 6.32234 6.44308 6.56553 6.68969 6.81552 6.943 7.07211 7.20283 7.33513 7.46899 7.6044 7.74133 7.87976 8.01966 8.16102 8.30382 8.44803 8.59364 8.74062 8.88895 9.03862 9.1896 9.34188 9.49544 9.65025 9.8063 9.96357 10.122 10.2817 10.4425 10.6045 10.7676 10.9318 11.0971 11.2635 11.431 11.5995 11.769 11.9395 12.1111 12.2836 12.4571 12.6316 12.8069 12.9833 13.1605 13.3386 13.5176 
13.3447 13.1635 12.9835 12.8048 12.6274 12.4512 12.2759 12.1017 11.9284 11.7561 11.5847 11.4143 11.245 11.0767 10.9094 10.7432 10.5781 10.4141 10.2512 10.0894 9.92884 9.76942 9.6112 9.4542 9.29843 9.14391 8.99066 8.83871 8.68807 8.53876 8.3908 8.24421 8.09902 7.95524 7.8129 7.67201 7.5326 7.3947 7.25831 7.12346 6.99018 6.85849 6.72841 6.59996 6.47316 6.34805 6.22463 6.10294 5.983 5.86482 5.74844 5.63387 5.52115 5.41029 5.30131 5.19425 5.08911 4.98594 4.88474 4.78555 4.68838 4.59325 4.5002 4.40925 4.3204 4.2337 4.14915 4.06679 3.98663 3.90869 3.833 3.75957 3.68842 3.61958 3.55306 3.48888 3.42707 3.36763 3.31058 3.25595 3.20375 3.15398 3.10668 3.06185 3.0195 2.97966 2.94232 2.90751 2.87524 2.8455 2.81832 2.79371 2.77166 2.75219 2.7353 2.72101 2.7093 2.7002 2.69369 2.68978 2.68848 2.68979 2.6937 2.70021 2.70932 2.72102 2.73532 2.75221 2.77169 2.79374 2.81836 2.84554 2.87528 2.90756 2.94237 2.97971 3.01956 3.06191 3.10674 3.15405 3.20381 3.25602 3.31066 3.36771 3.42715 3.48897 3.55315 3.61967 3.68852 3.75967 3.8331 3.9088 3.98675 4.06691 4.14928 4.23383 4.32054 4.40939 4.50035 4.5934 4.68853 4.78571 4.88491 4.98611 5.08929 5.19443 5.3015 5.41048 5.52135 5.63408 5.74866 5.86505 5.98323 6.10318 6.22488 6.34831 6.47343 6.60023 6.72869 6.85879 6.99049 7.12378 7.25864 7.39504 7.53296 7.67238 7.81328 7.95564 8.09943 8.24464 8.39124 8.53922 8.68855 8.83922 8.99119 9.14446 9.29901 9.45481 9.61185 9.7701 9.92956 10.0902 10.252 10.4149 10.579 10.7442 10.9104 11.0778 11.2462 11.4157 11.5861 11.7576 11.9301 12.1036 12.278 12.4534 12.6297 12.8069 12.9851 13.1641 13.344 
13.1719 12.9901 12.8093 12.6296 12.4512 12.2739 12.0976 11.9223 11.7481 11.5748 11.4025 11.2312 11.0609 10.8916 10.7234 10.5562 10.3901 10.2251 10.0613 9.89855 9.73698 9.57659 9.41738 9.25939 9.10263 8.94712 8.79288 8.63992 8.48828 8.33797 8.18901 8.04143 7.89523 7.75045 7.6071 7.46521 7.3248 7.18589 7.0485 6.91266 6.77838 6.64569 6.51462 6.38518 6.2574 6.13131 6.00691 5.88425 5.76334 5.6442 5.52687 5.41135 5.29769 5.18589 5.07599 4.96801 4.86197 4.7579 4.65581 4.55574 4.45771 4.36173 4.26784 4.17606 4.0864 3.9989 3.91357 3.83043 3.74951 3.67084 3.59442 3.52029 3.44846 3.37895 3.31178 3.24697 3.18455 3.12452 3.0669 3.01173 2.959 2.90873 2.86095 2.81566 2.77288 2.73263 2.69491 2.65974 2.62713 2.59709 2.56963 2.54476 2.52248 2.50281 2.48575 2.4713 2.45947 2.45027 2.4437 2.43975 2.43844 2.43976 2.4437 2.45028 2.45949 2.47132 2.48577 2.50284 2.52252 2.5448 2.56967 2.59714 2.62718 2.6598 2.69497 2.7327 2.77295 2.81574 2.86103 2.90881 2.95908 3.01182 3.067 3.12462 3.18465 3.24708 3.31189 3.37907 3.44858 3.52042 3.59456 3.67098 3.74966 3.83059 3.91373 3.99906 4.08657 4.17624 4.26803 4.36193 4.45791 4.55595 4.65603 4.75812 4.8622 4.96825 5.07624 5.18615 5.29795 5.41162 5.52715 5.64449 5.76364 5.88456 6.00723 6.13164 6.25774 6.38554 6.51499 6.64607 6.77877 6.91306 7.04892 7.18633 7.32525 7.46568 7.60759 7.75095 7.89576 8.04197 8.18958 8.33857 8.4889 8.64057 8.79355 8.94782 9.10337 9.26017 9.4182 9.57744 9.73789 9.89951 10.0623 10.2262 10.3913 10.5574 10.7246 10.893 11.0623 11.2327 11.4042 11.5766 11.75 11.9244 12.0998 12.2761 12.4534 12.6315 12.8106 12.9905 13.1713 
13.0001 12.8176 12.636 12.4554 12.2759 12.0976 11.9203 11.744 11.5688 11.3945 11.2212 11.0489 10.8777 10.7074 10.5382 10.3701 10.203 10.0371 9.87224 9.70853 9.54598 9.38459 9.22439 9.0654 8.90764 8.75113 8.59588 8.44192 8.28927 8.13795 7.98798 7.83938 7.69217 7.54637 7.40201 7.25911 7.11768 6.97776 6.83936 6.7025 6.56722 6.43352 6.30144 6.17101 6.04223 5.91514 5.78975 5.66611 5.54421 5.42411 5.3058 5.18933 5.07471 4.96197 4.85113 4.74221 4.63525 4.53027 4.42728 4.32632 4.22741 4.13057 4.03582 3.94319 3.85271 3.76439 3.67826 3.59434 3.51266 3.43323 3.35608 3.28122 3.20869 3.1385 3.07067 3.00522 2.94218 2.88155 2.82336 2.76762 2.71436 2.66358 2.61531 2.56956 2.52634 2.48567 2.44756 2.41202 2.37907 2.34872 2.32097 2.29583 2.27332 2.25344 2.2362 2.2216 2.20965 2.20035 2.19371 2.18972 2.18839 2.18972 2.19372 2.20036 2.20967 2.22163 2.23623 2.25348 2.27336 2.29588 2.32102 2.34877 2.37913 2.41209 2.44763 2.48575 2.52642 2.56965 2.6154 2.66368 2.71446 2.76773 2.82347 2.88167 2.94231 3.00536 3.07082 3.13865 3.20885 3.28139 3.35624 3.4334 3.51284 3.59453 3.67845 3.76459 3.85292 3.94341 4.03605 4.1308 4.22765 4.32657 4.42754 4.53054 4.63553 4.7425 4.85142 4.96227 5.07502 5.18966 5.30614 5.42446 5.54458 5.66648 5.79014 5.91554 6.04264 6.17143 6.30189 6.43398 6.56769 6.70299 6.83987 6.97829 7.11823 7.25968 7.4026 7.54699 7.69281 7.84004 7.98867 8.13867 8.29002 8.4427 8.59669 8.75198 8.90853 9.06633 9.22537 9.38561 9.54705 9.70967 9.87344 10.0383 10.2044 10.3715 10.5397 10.709 10.8793 11.0507 11.2231 11.3965 11.5709 11.7462 11.9225 12.0998 12.2779 12.457 12.637 12.8179 12.9996 
12.8293 12.646 12.4635 12.2821 12.1017 11.9223 11.744 11.5668 11.3905 11.2152 11.0409 10.8677 10.6954 10.5242 10.354 10.1849 10.0169 9.84993 9.68409 9.51939 9.35584 9.19345 9.03225 8.87225 8.71348 8.55595 8.39969 8.24472 8.09105 7.9387 7.78771 7.63809 7.48985 7.34303 7.19764 7.05371 6.91126 6.77031 6.63089 6.49301 6.3567 6.22199 6.08889 5.95744 5.82765 5.69955 5.57317 5.44852 5.32564 5.20454 5.08525 4.9678 4.85222 4.73851 4.62672 4.51686 4.40897 4.30306 4.19916 4.09729 3.99748 3.89976 3.80414 3.71066 3.61933 3.53019 3.44324 3.35852 3.27606 3.19586 3.11796 3.04238 2.96914 2.89825 2.82975 2.76365 2.69997 2.63873 2.57994 2.52364 2.46983 2.41853 2.36976 2.32353 2.27987 2.23877 2.20026 2.16435 2.13105 2.10038 2.07233 2.04693 2.02418 2.00409 1.98666 1.97191 1.95983 1.95043 1.94372 1.93969 1.93835 1.93969 1.94373 1.95045 1.95985 1.97194 1.9867 2.00413 2.02423 2.04699 2.0724 2.10045 2.13113 2.16443 2.20035 2.23886 2.27996 2.32364 2.36987 2.41865 2.46995 2.52377 2.58008 2.63887 2.70012 2.76381 2.82992 2.89843 2.96932 3.04257 3.11816 3.19607 3.27627 3.35875 3.44347 3.53042 3.61958 3.71092 3.80441 3.90003 3.99777 4.09759 4.19946 4.30337 4.4093 4.5172 4.62707 4.73887 4.85259 4.96819 5.08565 5.20495 5.32606 5.44896 5.57362 5.70002 5.82814 5.95794 6.08941 6.22253 6.35726 6.49359 6.63148 6.77093 6.9119 7.05438 7.19833 7.34375 7.49059 7.63886 7.78851 7.93954 8.09192 8.24562 8.40063 8.55694 8.71451 8.87332 9.03337 9.19463 9.35707 9.52069 9.68546 9.85136 10.0184 10.1865 10.3557 10.526 10.6973 10.8696 11.043 11.2173 11.3927 11.569 11.7462 11.9244 12.1035 12.2835 12.4644 12.6462 12.8288 
12.6595 12.4754 12.2921 12.1097 11.9284 11.7481 11.5688 11.3905 11.2132 11.0369 10.8617 10.6874 10.5142 10.3419 10.1708 10.0007 9.83163 9.66369 9.49685 9.33114 9.16658 9.00318 8.84096 8.67995 8.52016 8.36161 8.20433 8.04832 7.89363 7.74025 7.58823 7.43757 7.2883 7.14044 6.99401 6.84905 6.70556 6.56357 6.42311 6.2842 6.14685 6.01111 5.87698 5.7445 5.61369 5.48457 5.35717 5.23151 5.10762 4.98552 4.86524 4.7468 4.63023 4.51555 4.40279 4.29197 4.18313 4.07628 3.97145 3.86866 3.76794 3.66932 3.57282 3.47847 3.38628 3.29629 3.20852 3.12299 3.03973 2.95875 2.88009 2.80377 2.7298 2.65821 2.58902 2.52225 2.45792 2.39605 2.33667 2.27978 2.22542 2.17359 2.12431 2.0776 2.03347 1.99194 1.95302 1.91673 1.88308 1.85208 1.82373 1.79806 1.77506 1.75475 1.73714 1.72222 1.71001 1.70051 1.69373 1.68965 1.6883 1.68966 1.69374 1.70053 1.71004 1.72226 1.73718 1.7548 1.77512 1.79812 1.8238 1.85215 1.88316 1.91682 1.95312 1.99205 2.03358 2.07772 2.12444 2.17372 2.22556 2.27994 2.33683 2.39622 2.4581 2.52243 2.58921 2.65841 2.73001 2.80398 2.88032 2.95899 3.03998 3.12325 3.20879 3.29657 3.38657 3.47876 3.57313 3.66964 3.76827 3.869 3.9718 4.07664 4.1835 4.29236 4.40319 4.51596 4.63066 4.74724 4.8657 4.98599 5.10811 5.23202 5.35769 5.48511 5.61425 5.74508 5.87758 6.01172 6.14749 6.28485 6.42379 6.56427 6.70629 6.8498 6.9948 7.14125 7.28914 7.43844 7.58913 7.7412 7.89461 8.04935 8.20539 8.36272 8.52132 8.68116 8.84222 9.0045 9.16796 9.33258 9.49836 9.66526 9.83328 10.0024 10.1726 10.3438 10.5161 10.6894 10.8638 11.0391 11.2154 11.3926 11.5708 11.75 11.93 12.111 12.2928 12.4755 12.659 
12.4907 12.3057 12.1216 11.9383 11.7561 11.5748 11.3945 11.2152 11.0369 10.8597 10.6834 10.5081 10.3339 10.1607 9.98848 9.81737 9.64733 9.47837 9.31053 9.1438 8.97822 8.8138 8.65056 8.48853 8.32771 8.16812 8.0098 7.85276 7.69703 7.54261 7.38954 7.23783 7.08752 6.93861 6.79114 6.64512 6.50058 6.35755 6.21604 6.07608 5.93769 5.8009 5.66573 5.53221 5.40036 5.27021 5.14178 5.01509 4.89018 4.76706 4.64577 4.52633 4.40876 4.29309 4.17935 4.06756 3.95775 3.84994 3.74416 3.64044 3.5388 3.43927 3.34187 3.24663 3.15357 3.06272 2.97411 2.88775 2.80368 2.72191 2.64247 2.56539 2.49068 2.41837 2.34847 2.28103 2.21604 2.15354 2.09354 2.03606 1.98113 1.92875 1.87895 1.83175 1.78715 1.74518 1.70585 1.66917 1.63515 1.60381 1.57516 1.54921 1.52596 1.50543 1.48763 1.47255 1.46021 1.4506 1.44374 1.43962 1.43825 1.43963 1.44376 1.45062 1.46024 1.47259 1.48767 1.50549 1.52603 1.54928 1.57524 1.6039 1.63525 1.66927 1.70596 1.7453 1.78728 1.83188 1.8791 1.92891 1.98129 2.03623 2.09372 2.15373 2.21624 2.28123 2.34869 2.41859 2.49091 2.56563 2.64273 2.72218 2.80396 2.88804 2.97441 3.06304 3.15389 3.24696 3.34222 3.43963 3.53917 3.64082 3.74456 3.85035 3.95817 4.06799 4.1798 4.29355 4.40924 4.52682 4.64628 4.76759 4.89073 5.01566 5.14236 5.27081 5.40099 5.53286 5.6664 5.80159 5.9384 6.07681 6.2168 6.35834 6.5014 6.64597 6.79201 6.93952 7.08846 7.23881 7.39055 7.54366 7.69811 7.8539 8.01098 8.16935 8.32898 8.48985 8.65195 8.81524 8.97972 9.14537 9.31216 9.48007 9.64909 9.81921 9.99039 10.1626 10.3359 10.5102 10.6855 10.8618 11.0391 11.2173 11.3964 11.5765 11.7575 11.9394 12.1222 12.3058 12.4903 
12.3229 12.1371 11.952 11.7679 11.5847 11.4025 11.2212 11.0409 10.8617 10.6834 10.5061 10.3298 10.1546 9.98035 9.80716 9.63504 9.46398 9.29401 9.12514 8.95739 8.79079 8.62534 8.46106 8.29799 8.13613 7.9755 7.81614 7.65805 7.50126 7.34579 7.19167 7.03891 6.88753 6.73757 6.58903 6.44196 6.29636 6.15226 6.00969 5.86867 5.72922 5.59137 5.45515 5.32058 5.18768 5.05647 4.927 4.79927 4.67332 4.54918 4.42686 4.3064 4.18782 4.07114 3.9564 3.84362 3.73283 3.62406 3.51732 3.41265 3.31007 3.20961 3.1113 3.01515 2.92121 2.82949 2.74001 2.65281 2.56791 2.48534 2.40511 2.32725 2.25178 2.17874 2.10813 2.03999 1.97433 1.91118 1.85056 1.79248 1.73696 1.68403 1.6337 1.58599 1.54092 1.49849 1.45873 1.42165 1.38727 1.35559 1.32662 1.30039 1.27688 1.25613 1.23813 1.22288 1.2104 1.20069 1.19375 1.18959 1.18821 1.1896 1.19377 1.20072 1.21044 1.22292 1.23818 1.25619 1.27695 1.30046 1.32671 1.35568 1.38737 1.42177 1.45886 1.49862 1.54106 1.58614 1.63386 1.6842 1.73714 1.79267 1.85076 1.91139 1.97455 2.04022 2.10838 2.17899 2.25205 2.32752 2.40539 2.48563 2.56822 2.65313 2.74035 2.82983 2.92157 3.01552 3.11168 3.21 3.31048 3.41307 3.51776 3.62451 3.7333 3.84411 3.9569 4.07166 4.18835 4.30695 4.42743 4.54977 4.67393 4.7999 4.92765 5.05714 5.18837 5.32129 5.45589 5.59213 5.73001 5.86948 6.01053 6.15313 6.29725 6.44288 6.58999 6.73856 6.88856 7.03997 7.19277 7.34694 7.50245 7.65928 7.81742 7.97683 8.13751 8.29942 8.46255 8.62688 8.79239 8.95906 9.12687 9.2958 9.46583 9.63696 9.80914 9.98238 10.1567 10.3319 10.5082 10.6855 10.8637 11.0429 11.223 11.4041 11.586 11.7688 11.9525 12.1371 12.3225 
12.1562 11.9694 11.7835 11.5985 11.4143 11.2312 11.0489 10.8677 10.6874 10.5081 10.3298 10.1525 9.97628 9.80103 9.62683 9.45368 9.2816 9.1106 8.9407 8.77193 8.60428 8.43779 8.27248 8.10836 7.94545 7.78377 7.62335 7.4642 7.30635 7.14982 6.99463 6.8408 6.68836 6.53732 6.38772 6.23957 6.0929 5.94773 5.80408 5.66199 5.52147 5.38255 5.24526 5.10962 4.97565 4.84339 4.71285 4.58407 4.45708 4.33188 4.20853 4.08703 3.96742 3.84973 3.73397 3.62019 3.5084 3.39864 3.29092 3.18529 3.08175 2.98035 2.88111 2.78405 2.6892 2.59659 2.50624 2.41819 2.33244 2.24904 2.16801 2.08936 2.01313 1.93933 1.868 1.79915 1.73281 1.66899 1.60773 1.54903 1.49292 1.43943 1.38855 1.34033 1.29476 1.25188 1.21168 1.1742 1.13943 1.1074 1.07812 1.05159 1.02783 1.00684 0.988637 0.973222 0.960604 0.950785 0.94377 0.939563 0.938163 0.939572 0.94379 0.950814 0.960642 0.97327 0.988694 1.00691 1.02791 1.05168 1.07822 1.10751 1.13955 1.17432 1.21182 1.25202 1.29492 1.3405 1.38873 1.43961 1.49312 1.54924 1.60795 1.66922 1.73305 1.7994 1.86826 1.93961 2.01342 2.08966 2.16832 2.24937 2.33278 2.41854 2.50661 2.59697 2.68959 2.78445 2.88153 2.98079 3.0822 3.18575 3.2914 3.39914 3.50892 3.62072 3.73452 3.85029 3.968 4.08763 4.20915 4.33253 4.45774 4.58476 4.71356 4.84412 4.9764 5.11039 5.24606 5.38338 5.52232 5.66287 5.80499 5.94867 6.09387 6.24058 6.38876 6.5384 6.68947 6.84196 6.99582 7.15106 7.30763 7.46553 7.62472 7.78519 7.94692 8.10988 8.27405 8.43943 8.60597 8.77367 8.94251 9.11247 9.28352 9.45566 9.62885 9.80309 9.97836 10.1546 10.3319 10.5102 10.6894 10.8695 11.0506 11.2326 11.4155 11.5993 11.7839 11.9694 12.1557 
11.9905 11.8028 11.616 11.43 11.245 11.0609 10.8777 10.6954 10.5142 10.3339 10.1546 9.97628 9.79899 9.62273 9.4475 9.27332 9.10021 8.92817 8.75724 8.58742 8.41873 8.25119 8.08482 7.91965 7.75568 7.59294 7.43145 7.27124 7.11232 6.95471 6.79845 6.64354 6.49002 6.3379 6.18721 6.03798 5.89022 5.74396 5.59923 5.45605 5.31445 5.17445 5.03607 4.89935 4.7643 4.63096 4.49936 4.36951 4.24145 4.11519 3.99078 3.86824 3.74758 3.62885 3.51207 3.39727 3.28447 3.1737 3.065 2.95838 2.85387 2.75151 2.65132 2.55333 2.45756 2.36404 2.27281 2.18388 2.09728 2.01304 1.93118 1.85173 1.77471 1.70015 1.62808 1.55851 1.49146 1.42697 1.36505 1.30573 1.24902 1.19494 1.14352 1.09476 1.0487 1.00534 0.964703 0.926802 0.89165 0.859262 0.82965 0.802824 0.778795 0.757571 0.739162 0.723573 0.710812 0.700882 0.693788 0.689533 0.688118 0.689543 0.693809 0.700913 0.710853 0.723625 0.739224 0.757644 0.778878 0.802918 0.829755 0.859378 0.891777 0.926939 0.964851 1.0055 1.04887 1.09494 1.14371 1.19514 1.24923 1.30596 1.36529 1.42722 1.49173 1.55878 1.62837 1.70045 1.77503 1.85205 1.93152 2.01339 2.09764 2.18426 2.2732 2.36445 2.45799 2.55377 2.65178 2.75198 2.85436 2.95888 3.06552 3.17424 3.28503 3.39784 3.51267 3.62947 3.74822 3.86889 3.99145 4.11589 4.24216 4.37025 4.50012 4.63175 4.76512 4.90019 5.03693 5.17534 5.31537 5.457 5.60021 5.74497 5.89126 6.03906 6.18833 6.33905 6.49121 6.64477 6.79972 6.95603 7.11368 7.27264 7.43291 7.59444 7.75723 7.92125 8.08648 8.2529 8.42049 8.58923 8.7591 8.93009 9.10217 9.27533 9.44954 9.62479 9.80106 9.97834 10.1566 10.3358 10.516 10.6972 10.8792 11.0622 11.246 11.4307 11.6163 11.8028 11.99 
11.8259 11.6373 11.4495 11.2627 11.0767 10.8916 10.7074 10.5242 10.3419 10.1607 9.98035 9.80103 9.62273 9.44544 9.26918 9.09396 8.91981 8.74674 8.57475 8.40388 8.23414 8.06555 7.89812 7.73188 7.56684 7.40303 7.24047 7.07918 6.91918 6.76049 6.60313 6.44714 6.29252 6.13931 5.98753 5.83719 5.68834 5.54098 5.39515 5.25088 5.10817 4.96708 4.8276 4.68979 4.55365 4.41922 4.28653 4.15559 4.02645 3.89912 3.77364 3.65003 3.52832 3.40854 3.29071 3.17487 3.06105 2.94926 2.83954 2.73193 2.62643 2.5231 2.42194 2.323 2.2263 2.13186 2.03972 1.9499 1.86242 1.77733 1.69463 1.61436 1.53654 1.46121 1.38837 1.31807 1.25031 1.18513 1.12254 1.06258 1.00525 0.950579 0.89859 0.849299 0.802724 0.758883 0.717791 0.679465 0.643918 0.611165 0.581217 0.554087 0.529785 0.508319 0.4897 0.473933 0.461026 0.450983 0.443808 0.439504 0.438073 0.439515 0.44383 0.451016 0.461071 0.47399 0.489768 0.508398 0.529875 0.554189 0.581331 0.61129 0.644055 0.679613 0.717952 0.759055 0.802908 0.849495 0.898798 0.9508 1.00548 1.06282 1.1228 1.1854 1.2506 1.31836 1.38869 1.46153 1.53688 1.61471 1.695 1.77771 1.86282 1.95031 2.04014 2.1323 2.22676 2.32348 2.42243 2.5236 2.62696 2.73247 2.8401 2.94984 3.06164 3.17549 3.29135 3.4092 3.529 3.65073 3.77436 3.89987 4.02722 4.15639 4.28734 4.42006 4.55452 4.69068 4.82853 4.96803 5.10916 5.25189 5.3962 5.54206 5.68945 5.83834 5.98871 6.14053 6.29378 6.44844 6.60448 6.76187 6.92061 7.08065 7.24199 7.4046 7.56846 7.73354 7.89984 8.06731 8.23596 8.40575 8.57666 8.74869 8.9218 9.09598 9.27122 9.44748 9.62477 9.80305 9.98231 10.1625 10.3437 10.5258 10.7089 10.8928 11.0776 11.2633 11.4498 11.6372 11.8254 
11.6623 11.4728 11.2841 11.0963 10.9094 10.7234 10.5382 10.354 10.1708 9.98848 9.80716 9.62683 9.4475 9.26918 9.09188 8.91563 8.74043 8.56631 8.39327 8.22134 8.05054 7.88088 7.71238 7.54506 7.37895 7.21406 7.05041 6.88803 6.72694 6.56716 6.4087 6.25161 6.09589 5.94157 5.78868 5.63724 5.48728 5.33881 5.19187 5.04648 4.90267 4.76046 4.61988 4.48095 4.34371 4.20817 4.07438 3.94235 3.81211 3.68369 3.55712 3.43243 3.30965 3.1888 3.06991 2.95302 2.83815 2.72532 2.61458 2.50595 2.39945 2.29512 2.19299 2.09308 1.99542 1.90005 1.80698 1.71625 1.62789 1.54192 1.45837 1.37727 1.29864 1.2225 1.1489 1.07784 1.00936 0.943468 0.880202 0.819578 0.761619 0.706347 0.65378 0.603939 0.556842 0.512508 0.470952 0.432191 0.39624 0.363113 0.332822 0.305381 0.280799 0.259086 0.240252 0.224303 0.211246 0.201087 0.193829 0.189476 0.188028 0.189488 0.193853 0.201123 0.211295 0.224364 0.240325 0.259171 0.280896 0.30549 0.332944 0.363247 0.396386 0.43235 0.471124 0.512692 0.55704 0.604149 0.654003 0.706583 0.761869 0.819842 0.880479 0.943759 1.00966 1.07816 1.14923 1.22285 1.299 1.37764 1.45876 1.54233 1.62832 1.71669 1.80744 1.90052 1.99591 2.09359 2.19351 2.29567 2.40001 2.50653 2.61518 2.72594 2.83878 2.95368 3.07059 3.1895 3.31037 3.43318 3.55789 3.68448 3.81293 3.94319 4.07525 4.20907 4.34463 4.4819 4.62086 4.76147 4.90371 5.04756 5.19298 5.33995 5.48845 5.63845 5.78993 5.94286 6.09722 6.25297 6.41011 6.56861 6.72843 6.88957 7.052 7.21569 7.38063 7.54679 7.71415 7.88269 8.05239 8.22324 8.39521 8.56827 8.74243 8.91764 9.0939 9.27119 9.44949 9.62878 9.80905 9.99028 10.1724 10.3555 10.5395 10.7244 10.9102 11.0969 11.2843 11.4727 11.6618 
11.4998 11.3094 11.1198 10.9311 10.7432 10.5562 10.3701 10.1849 10.0007 9.81737 9.63504 9.45368 9.27332 9.09396 8.91563 8.73833 8.56208 8.3869 8.2128 8.03981 7.86794 7.6972 7.52763 7.35923 7.19203 7.02605 6.86131 6.69783 6.53563 6.37474 6.21518 6.05698 5.90014 5.74471 5.5907 5.43814 5.28705 5.13747 4.9894 4.84289 4.69795 4.55461 4.41291 4.27286 4.13449 3.99784 3.86293 3.72978 3.59843 3.46891 3.34124 3.21545 3.09158 2.96964 2.84968 2.73172 2.61578 2.50191 2.39013 2.28046 2.17294 2.0676 1.96447 1.86358 1.76495 1.66862 1.57461 1.48296 1.39369 1.30683 1.22241 1.14046 1.06099 0.984052 0.909655 0.83783 0.768602 0.701995 0.638034 0.57674 0.518137 0.462247 0.40909 0.358687 0.311056 0.266217 0.224187 0.184982 0.148617 0.115107 0.0844665 0.0567064 0.0318385 0.00987286 -0.00918145 -0.0253168 -0.0385263 -0.0488047 -0.0561476 -0.0605519 -0.062016 -0.0605391 -0.0561219 -0.0487661 -0.0384748 -0.0252524 -0.00910417 0.00996321 0.0319419 0.0568229 0.0845962 0.11525 0.148773 0.185151 0.22437 0.266414 0.311267 0.358911 0.409328 0.462499 0.518403 0.577021 0.638329 0.702305 0.768927 0.83817 0.91001 0.984422 1.06138 1.14086 1.22283 1.30727 1.39414 1.48343 1.5751 1.66912 1.76547 1.86412 1.96503 2.06818 2.17354 2.28107 2.39076 2.50257 2.61646 2.73242 2.8504 2.97039 3.09234 3.21624 3.34206 3.46975 3.5993 3.73067 3.86385 3.99879 4.13547 4.27386 4.41394 4.55568 4.69904 4.84401 4.99056 5.13866 5.28829 5.43941 5.59201 5.74605 5.90153 6.0584 6.21665 6.37625 6.53718 6.69942 6.86294 7.02772 7.19375 7.36099 7.52943 7.69905 7.86982 8.04173 8.21475 8.38887 8.56407 8.74032 8.91762 9.09594 9.27526 9.45556 9.63684 9.81907 10.0022 10.1863 10.3713 10.5572 10.7439 10.9315 11.12 11.3092 11.4993 
11.3385 11.1471 10.9566 10.7669 10.5781 10.3901 10.203 10.0169 9.83163 9.64733 9.46398 9.2816 9.10021 8.91981 8.74043 8.56208 8.38478 8.20853 8.03337 7.8593 7.68635 7.51454 7.34387 7.17438 7.00609 6.83901 6.67316 6.50858 6.34527 6.18327 6.02259 5.86326 5.7053 5.54874 5.3936 5.23991 5.08769 4.93696 4.78776 4.64011 4.49403 4.34956 4.20671 4.06553 3.92603 3.78824 3.65219 3.51792 3.38545 3.2548 3.12601 2.99911 2.87413 2.7511 2.63004 2.51099 2.39398 2.27903 2.16619 2.05547 1.94692 1.84055 1.7364 1.63451 1.53489 1.43759 1.34262 1.25003 1.15984 1.07207 0.98676 0.903936 0.823626 0.745856 0.670654 0.598047 0.528059 0.460717 0.396045 0.334067 0.274806 0.218284 0.164524 0.113546 0.0653703 0.0200152 -0.0225008 -0.0621608 -0.0989485 -0.132849 -0.163849 -0.191935 -0.217096 -0.23932 -0.2586 -0.274926 -0.288292 -0.298692 -0.306122 -0.310579 -0.31206 -0.310565 -0.306095 -0.298651 -0.288238 -0.274858 -0.258518 -0.239225 -0.216986 -0.191812 -0.163712 -0.132698 -0.098783 -0.061981 -0.0223068 0.0202236 0.0655931 0.113784 0.164777 0.218551 0.275088 0.334364 0.396358 0.461045 0.528403 0.598406 0.67103 0.746248 0.824035 0.904362 0.987202 1.07253 1.16031 1.25052 1.34314 1.43812 1.53544 1.63508 1.73699 1.84116 1.94754 2.05612 2.16686 2.27973 2.39469 2.51173 2.6308 2.75188 2.87494 2.99995 3.12687 3.25568 3.38636 3.51886 3.65316 3.78923 3.92705 4.06658 4.2078 4.35067 4.49518 4.64129 4.78897 4.93821 5.08897 5.24123 5.39496 5.55013 5.70673 5.86473 6.0241 6.18482 6.34686 6.51021 6.67484 6.84073 7.00785 7.17618 7.34571 7.5164 7.68825 7.86123 8.03532 8.21049 8.38674 8.56404 8.74238 8.92173 9.10208 9.28341 9.4657 9.64893 9.8331 10.0182 10.2041 10.391 10.5787 10.7673 10.9567 11.1469 11.3379 