# vtk DataFile Version 2.0
2D Surface
ASCII
DATASET RECTILINEAR_GRID
DIMENSIONS 201 201 1
X_COORDINATES 201 float
0
0.25
0.5
0.75
1
1.25
1.5
1.75
2
2.25
2.5
2.75
3
3.25
3.5
3.75
4
4.25
4.5
4.75
5
5.25
5.5
5.75
6
6.25
6.5
6.75
7
7.25
7.5
7.75
8
8.25
8.5
8.75
9
9.25
9.5
9.75
10
10.25
10.5
10.75
11
11.25
11.5
11.75
12
12.25
12.5
12.75
13
13.25
13.5
13.75
14
14.25
14.5
14.75
15
15.25
15.5
15.75
16
16.25
16.5
16.75
17
17.25
17.5
17.75
18
18.25
18.5
18.75
19
19.25
19.5
19.75
20
20.25
20.5
20.75
21
21.25
21.5
21.75
22
22.25
22.5
22.75
23
23.25
23.5
23.75
24
24.25
24.5
24.75
25
25.25
25.5
25.75
26
26.25
26.5
26.75
27
27.25
27.5
27.75
28
28.25
28.5
28.75
29
29.25
29.5
29.75
30
30.25
30.5
30.75
31
31.25
31.5
31.75
32
32.25
32.5
32.75
33
33.25
33.5
33.75
34
34.25
34.5
34.75
35
35.25
35.5
35.75
36
36.25
36.5
36.75
37
37.25
37.5
37.75
38
38.25
38.5
38.75
39
39.25
39.5
39.75
40
40.25
40.5
40.75
41
41.25
41.5
41.75
42
42.25
42.5
42.75
43
43.25
43.5
43.75
44
44.25
44.5
44.75
45
45.25
45.5
45.75
46
46.25
46.5
46.75
47
47.25
47.5
47.75
48
48.25
48.5
48.75
49
49.25
49.5
49.75
50
Y_COORDINATES 201 float
0
0.25
0.5
0.75
1
1.25
1.5
1.75
2
2.25
2.5
2.75
3
3.25
3.5
3.75
4
4.25
4.5
4.75
5
5.25
5.5
5.75
6
6.25
6.5
6.75
7
7.25
7.5
7.75
8
8.25
8.5
8.75
9
9.25
9.5
9.75
10
10.25
10.5
10.75
11
11.25
11.5
11.75
12
12.25
12.5
12.75
13
13.25
13.5
13.75
14
14.25
14.5
14.75
15
15.25
15.5
15.75
16
16.25
16.5
16.75
17
17.25
17.5
17.75
18
18.25
18.5
18.75
19
19.25
19.5
19.75
20
20.25
20.5
20.75
21
21.25
21.5
21.75
22
22.25
22.5
22.75
23
23.25
23.5
23.75
24
24.25
24.5
24.75
25
25.25
25.5
25.75
26
26.25
26.5
26.75
27
27.25
27.5
27.75
28
28.25
28.5
28.75
29
29.25
29.5
29.75
30
30.25
30.5
30.75
31
31.25
31.5
31.75
32
32.25
32.5
32.75
33
33.25
33.5
33.75
34
34.25
34.5
34.75
35
35.25
35.5
35.75
36
36.25
36.5
36.75
37
37.25
37.5
37.75
38
38.25
38.5
38.75
39
39.25
39.5
39.75
40
40.25
40.5
40.75
41
41.25
41.5
41.75
42
42.25
42.5
42.75
43
43.25
43.5
43.75
44
44.25
44.5
44.75
45
45.25
45.5
45.75
46
46.25
46.5
46.75
47
47.25
47.5
47.75
48
48.25
48.5
48.75
49
49.25
49.5
49.75
50
Z_COORDINATES 1 float
0
POINT_DATA 40401
SCALARS SDValues float
LOOKUP_TABLE default
25.6549 25.4385 25.2333 25.0277 24.8225 24.618 24.4143 24.2113 24.0092 23.8079 23.6074 23.4079 23.2093 23.0117 22.815 22.6192 22.4246 22.2309 22.0383 21.8468 21.6564 21.4672 21.2792 21.0923 20.9067 20.7224 20.5393 20.3576 20.1773 19.9983 19.8208 19.6448 19.4703 19.2973 19.1259 18.9561 18.7881 18.6217 18.4571 18.2942 18.1333 17.9742 17.817 17.6618 17.5087 17.3576 17.2087 17.062 16.9175 16.7753 16.6354 16.4979 16.3629 16.2304 16.1005 15.9732 15.8486 15.7267 15.6077 15.4914 15.3782 15.2679 15.1606 15.0564 14.9554 14.8577 14.7632 14.672 14.5842 14.4999 14.419 14.3418 14.2681 14.1981 14.1318 14.0693 14.0106 13.9557 13.9047 13.8577 13.8146 13.7755 13.7404 13.7094 13.6825 13.6597 13.641 13.6264 13.616 13.6097 13.6077 13.6077 13.6077 13.6077 13.6077 13.6077 13.6077 13.6077 13.6077 13.6077 13.6077 13.6077 13.6077 13.6077 13.6077 13.6077 13.6077 13.6077 13.6077 13.6077 13.6077 13.6098 13.616 13.6264 13.641 13.6597 13.6825 13.7094 13.7404 13.7755 13.8146 13.8577 13.9047 13.9557 14.0106 14.0693 14.1318 14.1981 14.2681 14.3418 14.4191 14.4999 14.5842 14.672 14.7632 14.8577 14.9555 15.0565 15.1606 15.2679 15.3782 15.4915 15.6077 15.7267 15.8486 15.9732 16.1005 16.2305 16.363 16.498 16.6354 16.7753 16.9175 17.062 17.2088 17.3577 17.5087 17.6619 17.817 17.9742 18.1333 18.2943 18.4571 18.6217 18.7881 18.9562 19.126 19.2973 19.4703 19.6448 19.8209 19.9984 20.1773 20.3577 20.5394 20.7224 20.9068 21.0924 21.2792 21.4673 21.6565 21.8469 22.0384 22.231 22.4247 22.6194 22.8151 23.0118 23.2095 23.4081 23.6077 23.8081 24.0095 24.2116 24.4147 24.6185 24.8231 25.0286 25.2347 25.4417 25.6493 
25.5271 25.3083 25.0964 24.8884 24.6816 24.4757 24.2706 24.0664 23.863 23.6604 23.4587 23.258 23.0581 22.8592 22.6612 22.4642 22.2682 22.0732 21.8793 21.6865 21.4948 21.3042 21.1147 20.9265 20.7395 20.5537 20.3693 20.1861 20.0043 19.8239 19.6449 19.4674 19.2914 19.1169 18.944 18.7727 18.6031 18.4351 18.2689 18.1045 17.942 17.7813 17.6225 17.4658 17.311 17.1584 17.0078 16.8595 16.7133 16.5695 16.428 16.2889 16.1523 16.0182 15.8867 15.7578 15.6316 15.5082 15.3876 15.2698 15.155 15.0432 14.9345 14.8289 14.7264 14.6272 14.5314 14.4389 14.3498 14.2642 14.1821 14.1037 14.0289 13.9578 13.8905 13.827 13.7673 13.7115 13.6597 13.6119 13.5681 13.5283 13.4927 13.4612 13.4338 13.4106 13.3916 13.3768 13.3662 13.3598 13.3577 13.3577 13.3577 13.3577 13.3577 13.3577 13.3577 13.3577 13.3577 13.3577 13.3577 13.3577 13.3577 13.3577 13.3577 13.3577 13.3577 13.3577 13.3577 13.3577 13.3577 13.3598 13.3662 13.3768 13.3916 13.4106 13.4338 13.4612 13.4927 13.5283 13.5681 13.6119 13.6597 13.7115 13.7673 13.8269 13.8905 13.9578 14.0289 14.1037 14.1821 14.2642 14.3498 14.4388 14.5314 14.6272 14.7264 14.8288 14.9345 15.0432 15.155 15.2698 15.3875 15.5082 15.6316 15.7578 15.8867 16.0182 16.1523 16.2889 16.428 16.5695 16.7133 16.8594 17.0078 17.1583 17.311 17.4657 17.6225 17.7813 17.9419 18.1045 18.2689 18.4351 18.603 18.7727 18.9439 19.1168 19.2913 19.4674 19.6449 19.8239 20.0043 20.1861 20.3692 20.5537 20.7394 20.9264 21.1146 21.3041 21.4947 21.6864 21.8792 22.0731 22.2681 22.464 22.661 22.859 23.0579 23.2578 23.4585 23.6601 23.8627 24.066 24.2702 24.4752 24.6809 24.8874 25.0947 25.3027 25.5115 
25.3917 25.1777 24.9634 24.7524 24.5435 24.3359 24.1293 23.9236 23.7189 23.515 23.3121 23.11 22.9088 22.7086 22.5093 22.311 22.1137 21.9174 21.7221 21.528 21.3349 21.1429 20.9521 20.7624 20.574 20.3868 20.2009 20.0163 19.8331 19.6512 19.4707 19.2917 19.1141 18.9381 18.7636 18.5908 18.4196 18.2501 18.0823 17.9163 17.7521 17.5898 17.4295 17.2711 17.1147 16.9604 16.8082 16.6582 16.5104 16.3649 16.2218 16.0811 15.9428 15.8071 15.6739 15.5434 15.4156 15.2906 15.1684 15.049 14.9327 14.8194 14.7091 14.602 14.4981 14.3975 14.3002 14.2063 14.1159 14.029 13.9457 13.866 13.7901 13.7178 13.6494 13.5849 13.5243 13.4676 13.4149 13.3663 13.3218 13.2813 13.2451 13.213 13.1852 13.1616 13.1423 13.1272 13.1164 13.11 13.1078 13.1078 13.1078 13.1078 13.1078 13.1078 13.1078 13.1078 13.1078 13.1078 13.1078 13.1078 13.1078 13.1078 13.1078 13.1078 13.1078 13.1078 13.1078 13.1078 13.1078 13.1099 13.1164 13.1272 13.1422 13.1616 13.1852 13.213 13.2451 13.2813 13.3217 13.3662 13.4149 13.4675 13.5242 13.5848 13.6494 13.7178 13.79 13.866 13.9456 14.0289 14.1158 14.2062 14.3001 14.3974 14.498 14.6019 14.709 14.8193 14.9326 15.0489 15.1683 15.2905 15.4155 15.5433 15.6738 15.807 15.9427 16.081 16.2217 16.3648 16.5103 16.658 16.808 16.9602 17.1145 17.2709 17.4293 17.5897 17.7519 17.9161 18.0821 18.2499 18.4194 18.5906 18.7634 18.9378 19.1138 19.2914 19.4704 19.6509 19.8327 20.016 20.2006 20.3865 20.5736 20.762 20.9517 21.1424 21.3344 21.5274 21.7216 21.9168 22.1131 22.3103 22.5086 22.7078 22.908 23.109 23.311 23.5138 23.7175 23.922 24.1273 24.3335 24.5403 24.748 24.9564 25.1655 25.3753 
25.2566 25.0433 24.8296 24.6174 24.4069 24.1977 23.9897 23.7826 23.5765 23.3713 23.1671 22.9637 22.7612 22.5597 22.3591 22.1595 21.9608 21.7632 21.5666 21.3711 21.1766 20.9833 20.791 20.6 20.4101 20.2215 20.0342 19.8481 19.6634 19.48 19.298 19.1174 18.9384 18.7608 18.5848 18.4104 18.2376 18.0665 17.8971 17.7295 17.5637 17.3998 17.2377 17.0777 16.9197 16.7637 16.6098 16.4582 16.3087 16.1616 16.0167 15.8743 15.7344 15.597 15.4622 15.33 15.2006 15.0739 14.9501 14.8291 14.7112 14.5963 14.4845 14.3758 14.2704 14.1683 14.0696 13.9743 13.8825 13.7943 13.7097 13.6288 13.5516 13.4782 13.4087 13.3431 13.2815 13.2238 13.1703 13.1208 13.0756 13.0345 12.9976 12.965 12.9366 12.9126 12.8929 12.8776 12.8667 12.8601 12.8579 12.8579 12.8579 12.8579 12.8579 12.8579 12.8579 12.8579 12.8579 12.8579 12.8579 12.8579 12.8579 12.8579 12.8579 12.8579 12.8579 12.8579 12.8579 12.8579 12.8579 12.86 12.8666 12.8776 12.8929 12.9126 12.9366 12.9649 12.9975 13.0344 13.0755 13.1208 13.1702 13.2238 13.2814 13.343 13.4086 13.4781 13.5515 13.6287 13.7096 13.7942 13.8824 13.9742 14.0695 14.1682 14.2703 14.3757 14.4843 14.5961 14.711 14.8289 14.9499 15.0737 15.2004 15.3298 15.462 15.5968 15.7342 15.8741 16.0165 16.1613 16.3084 16.4579 16.6095 16.7634 16.9193 17.0774 17.2374 17.3994 17.5633 17.7291 17.8967 18.0661 18.2372 18.4099 18.5843 18.7603 18.9379 19.1169 19.2975 19.4794 19.6628 19.8475 20.0335 20.2209 20.4095 20.5993 20.7903 20.9824 21.1757 21.3702 21.5656 21.7622 21.9597 22.1583 22.3578 22.5583 22.7597 22.9619 23.1651 23.3691 23.574 23.7797 23.9862 24.1934 24.4014 24.6102 24.8197 25.0298 25.2407 
25.1234 24.9098 24.6961 24.4832 24.2715 24.061 23.8516 23.6433 23.4359 23.2294 23.0238 22.8191 22.6153 22.4125 22.2106 22.0097 21.8097 21.6107 21.4128 21.2159 21.02 20.8253 20.6317 20.4392 20.2479 20.0579 19.869 19.6815 19.4953 19.3104 19.1269 18.9448 18.7642 18.5851 18.4075 18.2315 18.0571 17.8844 17.7134 17.5441 17.3767 17.2111 17.0474 16.8857 16.726 16.5683 16.4128 16.2594 16.1082 15.9594 15.8129 15.6688 15.5271 15.388 15.2515 15.1176 14.9865 14.8582 14.7327 14.6101 14.4905 14.374 14.2606 14.1504 14.0435 13.9398 13.8396 13.7429 13.6497 13.5601 13.4741 13.3919 13.3135 13.2389 13.1683 13.1016 13.0389 12.9803 12.9258 12.8756 12.8295 12.7877 12.7501 12.717 12.6881 12.6637 12.6437 12.6281 12.6169 12.6102 12.608 12.608 12.608 12.608 12.608 12.608 12.608 12.608 12.608 12.608 12.608 12.6079 12.6079 12.6079 12.6079 12.6079 12.6079 12.6079 12.6079 12.6079 12.6079 12.6102 12.6168 12.628 12.6436 12.6636 12.688 12.7169 12.75 12.7876 12.8294 12.8754 12.9257 12.9802 13.0388 13.1014 13.1681 13.2388 13.3133 13.3918 13.474 13.5599 13.6495 13.7427 13.8394 13.9396 14.0432 14.1502 14.2604 14.3737 14.4903 14.6098 14.7324 14.8579 14.9862 15.1173 15.2512 15.3877 15.5268 15.6684 15.8125 15.959 16.1079 16.259 16.4124 16.5679 16.7255 16.8852 17.0469 17.2106 17.3762 17.5436 17.7128 17.8838 18.0565 18.2309 18.4068 18.5844 18.7635 18.9441 19.1261 19.3096 19.4944 19.6806 19.8681 20.0569 20.2469 20.4381 20.6306 20.8241 21.0188 21.2145 21.4113 21.6092 21.808 22.0079 22.2087 22.4104 22.613 22.8166 23.0209 23.2262 23.4322 23.6391 23.8467 24.0551 24.2642 24.4741 24.6846 24.8959 25.1078 
24.992 24.7777 24.5635 24.35 24.1374 23.9258 23.7152 23.5055 23.2968 23.089 22.8822 22.6762 22.4712 22.267 22.0638 21.8616 21.6603 21.4599 21.2606 21.0624 20.8652 20.669 20.474 20.2801 20.0874 19.8959 19.7056 19.5166 19.3288 19.1424 18.9574 18.7738 18.5916 18.4109 18.2317 18.0541 17.8781 17.7038 17.5312 17.3603 17.1912 17.0239 16.8585 16.6951 16.5337 16.3743 16.217 16.0619 15.9091 15.7585 15.6102 15.4644 15.321 15.1802 15.0419 14.9063 14.7735 14.6434 14.5162 14.392 14.2707 14.1526 14.0375 13.9257 13.8172 13.712 13.6103 13.5121 13.4174 13.3264 13.2391 13.1555 13.0758 13 12.9282 12.8603 12.7966 12.737 12.6816 12.6304 12.5835 12.541 12.5028 12.469 12.4397 12.4148 12.3944 12.3785 12.3672 12.3603 12.3581 12.3581 12.3581 12.3581 12.3581 12.3581 12.358 12.358 12.358 12.358 12.358 12.358 12.358 12.358 12.358 12.358 12.358 12.358 12.358 12.358 12.358 12.3603 12.3671 12.3784 12.3943 12.4147 12.4396 12.4689 12.5027 12.5409 12.5834 12.6303 12.6814 12.7368 12.7964 12.8602 12.928 12.9998 13.0756 13.1553 13.2388 13.3261 13.4172 13.5118 13.61 13.7118 13.8169 13.9254 14.0372 14.1522 14.2704 14.3916 14.5159 14.643 14.7731 14.9059 15.0415 15.1797 15.3206 15.4639 15.6098 15.758 15.9086 16.0614 16.2165 16.3737 16.5331 16.6945 16.8579 17.0233 17.1905 17.3596 17.5304 17.7031 17.8774 18.0533 18.2309 18.41 18.5907 18.7728 18.9564 19.1414 19.3277 19.5154 19.7044 19.8946 20.0861 20.2787 20.4725 20.6675 20.8635 21.0606 21.2588 21.4579 21.6581 21.8592 22.0613 22.2643 22.4681 22.6729 22.8785 23.0849 23.2921 23.5001 23.7089 23.9184 24.1287 24.3397 24.5513 24.7636 24.9766 
24.8624 24.6473 24.4324 24.2181 24.0046 23.7919 23.5802 23.3694 23.1594 22.9504 22.7423 22.5351 22.3287 22.1233 21.9188 21.7152 21.5126 21.3109 21.1103 20.9106 20.712 20.5145 20.3181 20.1227 19.9286 19.7356 19.5438 19.3533 19.1641 18.9762 18.7896 18.6044 18.4207 18.2384 18.0576 17.8784 17.7008 17.5248 17.3505 17.1779 17.0072 16.8382 16.6711 16.506 16.3428 16.1817 16.0227 15.8659 15.7112 15.5589 15.4089 15.2612 15.1161 14.9735 14.8335 14.6961 14.5615 14.4297 14.3008 14.1748 14.0519 13.932 13.8153 13.7018 13.5917 13.4849 13.3816 13.2819 13.1857 13.0932 13.0045 12.9196 12.8385 12.7615 12.6884 12.6194 12.5546 12.4939 12.4376 12.3855 12.3378 12.2944 12.2556 12.2212 12.1913 12.1659 12.1452 12.129 12.1174 12.1105 12.1082 12.1082 12.1082 12.1081 12.1081 12.1081 12.1081 12.1081 12.1081 12.1081 12.1081 12.1081 12.1081 12.1081 12.1081 12.1081 12.1081 12.1081 12.1081 12.1081 12.1081 12.1104 12.1173 12.1289 12.145 12.1658 12.1911 12.221 12.2554 12.2943 12.3376 12.3853 12.4374 12.4937 12.5544 12.6192 12.6882 12.7612 12.8383 12.9193 13.0042 13.0929 13.1854 13.2815 13.3813 13.4846 13.5913 13.7015 13.8149 13.9316 14.0514 14.1744 14.3003 14.4293 14.561 14.6956 14.833 14.973 15.1155 15.2607 15.4083 15.5583 15.7106 15.8652 16.022 16.181 16.3421 16.5052 16.6703 16.8374 17.0063 17.1771 17.3496 17.5239 17.6998 17.8774 18.0566 18.2373 18.4196 18.6033 18.7884 18.9749 19.1627 19.3519 19.5424 19.734 19.9269 20.121 20.3162 20.5125 20.71 20.9084 21.1079 21.3084 21.5099 21.7123 21.9156 22.1199 22.325 22.531 22.7378 22.9454 23.1538 23.363 23.5729 23.7835 23.9949 24.207 24.4197 24.6331 24.8472 
24.7346 24.5186 24.3029 24.0878 23.8733 23.6597 23.4468 23.2349 23.0237 22.8135 22.6041 22.3956 22.188 21.9813 21.7755 21.5706 21.3667 21.1637 20.9617 20.7606 20.5607 20.3617 20.1639 19.9671 19.7715 19.5771 19.3839 19.1918 19.0011 18.8116 18.6235 18.4368 18.2515 18.0676 17.8852 17.7044 17.5251 17.3474 17.1715 16.9972 16.8247 16.6541 16.4853 16.3184 16.1535 15.9906 15.8298 15.6712 15.5148 15.3606 15.2088 15.0594 14.9124 14.768 14.6262 14.4871 14.3507 14.2171 14.0864 13.9586 13.8339 13.7123 13.5939 13.4788 13.367 13.2586 13.1537 13.0523 12.9546 12.8606 12.7704 12.6841 12.6017 12.5233 12.449 12.3788 12.3128 12.2511 12.1937 12.1407 12.0921 12.048 12.0084 11.9734 11.9429 11.9171 11.896 11.8795 11.8677 11.8606 11.8583 11.8582 11.8582 11.8582 11.8582 11.8582 11.8582 11.8582 11.8582 11.8582 11.8582 11.8582 11.8582 11.8582 11.8582 11.8582 11.8582 11.8582 11.8582 11.8582 11.8581 11.8605 11.8676 11.8793 11.8958 11.917 11.9428 11.9732 12.0082 12.0478 12.0919 12.1405 12.1935 12.2509 12.3126 12.3785 12.4487 12.523 12.6014 12.6838 12.7701 12.8603 12.9542 13.0519 13.1533 13.2581 13.3665 13.4783 13.5935 13.7119 13.8334 13.9581 14.0859 14.2165 14.3501 14.4865 14.6256 14.7674 14.9118 15.0587 15.2081 15.3599 15.514 15.6704 15.829 15.9898 16.1526 16.3175 16.4843 16.6531 16.8237 16.9962 17.1704 17.3463 17.5239 17.7032 17.8839 18.0663 18.2501 18.4354 18.622 18.8101 18.9995 19.1901 19.3821 19.5752 19.7696 19.9651 20.1617 20.3594 20.5582 20.758 20.9589 21.1607 21.3635 21.5672 21.7718 21.9773 22.1836 22.3908 22.5988 22.8076 23.0172 23.2276 23.4386 23.6504 23.8629 24.0761 24.2899 24.5044 24.7195 
24.6086 24.3916 24.1751 23.959 23.7437 23.529 23.3151 23.102 22.8897 22.6783 22.4677 22.258 22.0491 21.8411 21.634 21.4278 21.2226 21.0182 20.8149 20.6125 20.4111 20.2108 20.0115 19.8133 19.6163 19.4204 19.2256 19.0321 18.8399 18.6489 18.4592 18.2709 18.084 17.8985 17.7145 17.532 17.3511 17.1718 16.9941 16.8181 16.6439 16.4715 16.301 16.1323 15.9656 15.801 15.6384 15.478 15.3197 15.1638 15.0101 14.8589 14.7101 14.5638 14.4202 14.2792 14.141 14.0056 13.8731 13.7435 13.617 13.4936 13.3735 13.2566 13.1431 13.033 12.9264 12.8235 12.7242 12.6286 12.5369 12.4491 12.3653 12.2856 12.21 12.1385 12.0714 12.0086 11.9501 11.8961 11.8466 11.8017 11.7614 11.7257 11.6946 11.6683 11.6468 11.63 11.618 11.6108 11.6083 11.6083 11.6083 11.6083 11.6083 11.6083 11.6083 11.6083 11.6083 11.6083 11.6083 11.6083 11.6083 11.6083 11.6083 11.6082 11.6082 11.6082 11.6082 11.6082 11.6082 11.6106 11.6178 11.6298 11.6466 11.6682 11.6944 11.7255 11.7611 11.8015 11.8464 11.8959 11.9498 12.0083 12.0711 12.1382 12.2096 12.2852 12.365 12.4488 12.5365 12.6282 12.7237 12.823 12.9259 13.0325 13.1426 13.2561 13.3729 13.4931 13.6164 13.7429 13.8724 14.0049 14.1403 14.2785 14.4195 14.5631 14.7093 14.8581 15.0093 15.1629 15.3188 15.4771 15.6375 15.8 15.9646 16.1313 16.2999 16.4704 16.6427 16.8169 16.9928 17.1704 17.3497 17.5306 17.713 17.897 18.0824 18.2692 18.4575 18.6471 18.838 19.0301 19.2236 19.4182 19.614 19.8109 20.009 20.2081 20.4082 20.6094 20.8116 21.0148 21.2188 21.4238 21.6297 21.8365 22.0441 22.2525 22.4617 22.6717 22.8825 23.094 23.3062 23.5191 23.7327 23.9469 24.1618 24.3774 24.5936 
24.4844 24.2665 24.049 23.832 23.6157 23.4 23.1851 22.9709 22.7575 22.5449 22.3331 22.1221 21.912 21.7027 21.4944 21.2869 21.0803 20.8746 20.6699 20.4662 20.2634 20.0617 19.861 19.6614 19.4629 19.2655 19.0693 18.8742 18.6804 18.4879 18.2967 18.1068 17.9183 17.7312 17.5455 17.3614 17.1788 16.9978 16.8184 16.6407 16.4648 16.2906 16.1183 15.9479 15.7794 15.6129 15.4485 15.2862 15.1262 14.9684 14.8129 14.6597 14.5091 14.361 14.2155 14.0726 13.9325 13.7952 13.6609 13.5295 13.4011 13.276 13.154 13.0353 12.92 12.8082 12.6999 12.5953 12.4944 12.3973 12.304 12.2147 12.1295 12.0483 11.9713 11.8986 11.8303 11.7663 11.7067 11.6517 11.6013 11.5555 11.5144 11.478 11.4464 11.4196 11.3976 11.3805 11.3683 11.3609 11.3584 11.3584 11.3584 11.3584 11.3584 11.3584 11.3584 11.3584 11.3584 11.3584 11.3584 11.3584 11.3583 11.3583 11.3583 11.3583 11.3583 11.3583 11.3583 11.3583 11.3583 11.3607 11.3681 11.3803 11.3974 11.4194 11.4462 11.4778 11.5142 11.5553 11.601 11.6514 11.7064 11.7659 11.8299 11.8983 11.9709 12.0479 12.129 12.2143 12.3035 12.3968 12.4939 12.5948 12.6994 12.8077 12.9195 13.0347 13.1534 13.2753 13.4005 13.5288 13.6602 13.7945 13.9317 14.0718 14.2146 14.3601 14.5082 14.6588 14.8119 14.9674 15.1252 15.2852 15.4474 15.6118 15.7782 15.9467 16.117 16.2893 16.4634 16.6393 16.817 16.9963 17.1772 17.3598 17.5438 17.7294 17.9164 18.1049 18.2947 18.4858 18.6783 18.872 19.0669 19.263 19.4602 19.6586 19.8581 20.0586 20.2601 20.4627 20.6662 20.8707 21.0761 21.2824 21.4895 21.6975 21.9064 22.116 22.3264 22.5376 22.7495 22.9622 23.1755 23.3896 23.6043 23.8196 24.0356 24.2522 24.4694 
24.362 24.1431 23.9247 23.7068 23.4895 23.2728 23.0568 22.8415 22.627 22.4132 22.2002 21.9881 21.7767 21.5662 21.3566 21.1478 20.9399 20.7329 20.5268 20.3217 20.1176 19.9144 19.7123 19.5113 19.3113 19.1125 18.9147 18.7182 18.5229 18.3288 18.136 17.9445 17.7544 17.5657 17.3784 17.1926 17.0083 16.8256 16.6445 16.465 16.2873 16.1114 15.9373 15.7651 15.5948 15.4265 15.2602 15.0961 14.9341 14.7744 14.6171 14.4621 14.3095 14.1595 14.0121 13.8673 13.7253 13.5861 13.4498 13.3166 13.1864 13.0593 12.9355 12.815 12.6979 12.5843 12.4743 12.3679 12.2653 12.1665 12.0717 11.9808 11.8941 11.8115 11.7331 11.6591 11.5894 11.5243 11.4636 11.4076 11.3562 11.3095 11.2676 11.2305 11.1983 11.1709 11.1485 11.131 11.1185 11.111 11.1085 11.1085 11.1085 11.1085 11.1085 11.1085 11.1085 11.1085 11.1085 11.1085 11.1084 11.1084 11.1084 11.1084 11.1084 11.1084 11.1084 11.1084 11.1084 11.1084 11.1084 11.1109 11.1184 11.1308 11.1483 11.1707 11.198 11.2302 11.2673 11.3092 11.3559 11.4072 11.4633 11.5239 11.589 11.6587 11.7327 11.811 11.8936 11.9803 12.0712 12.166 12.2648 12.3673 12.4737 12.5837 12.6972 12.8143 12.9348 13.0586 13.1856 13.3158 13.449 13.5853 13.7244 13.8664 14.0111 14.1585 14.3085 14.461 14.616 14.7733 14.933 15.0949 15.259 15.4252 15.5935 15.7637 15.9359 16.1099 16.2858 16.4635 16.6428 16.8239 17.0065 17.1907 17.3765 17.5637 17.7523 17.9424 18.1338 18.3265 18.5204 18.7156 18.9121 19.1096 19.3084 19.5082 19.7091 19.911 20.1139 20.3178 20.5227 20.7285 20.9352 21.1428 21.3512 21.5605 21.7706 21.9814 22.193 22.4054 22.6185 22.8323 23.0468 23.2619 23.4777 23.6942 23.9112 24.1289 24.3471 
24.2415 24.0217 23.8022 23.5834 23.365 23.1473 22.9303 22.7139 22.4983 22.2834 22.0693 21.8559 21.6433 21.4316 21.2206 21.0106 20.8014 20.5931 20.3856 20.1792 19.9737 19.7691 19.5656 19.3631 19.1617 18.9613 18.7621 18.5641 18.3672 18.1716 17.9772 17.7841 17.5924 17.402 17.2131 17.0256 16.8396 16.6552 16.4723 16.2912 16.1117 15.9339 15.758 15.584 15.4118 15.2417 15.0736 14.9075 14.7437 14.5821 14.4228 14.2659 14.1114 13.9594 13.81 13.6633 13.5194 13.3783 13.24 13.1048 12.9727 12.8437 12.718 12.5957 12.4767 12.3613 12.2495 12.1413 12.037 11.9365 11.84 11.7476 11.6593 11.5752 11.4954 11.42 11.349 11.2826 11.2208 11.1636 11.1112 11.0637 11.0209 10.9831 10.9502 10.9223 10.8994 10.8816 10.8688 10.8612 10.8586 10.8586 10.8586 10.8586 10.8586 10.8586 10.8586 10.8586 10.8585 10.8585 10.8585 10.8585 10.8585 10.8585 10.8585 10.8585 10.8585 10.8585 10.8585 10.8585 10.8584 10.861 10.8686 10.8814 10.8992 10.922 10.9499 10.9828 11.0206 11.0633 11.1109 11.1633 11.2204 11.2822 11.3486 11.4195 11.4949 11.5746 11.6587 11.747 11.8394 11.9359 12.0364 12.1407 12.2488 12.3606 12.476 12.5949 12.7172 12.8429 12.9719 13.104 13.2391 13.3773 13.5184 13.6623 13.809 13.9583 14.1103 14.2647 14.4216 14.5809 14.7424 14.9062 15.0722 15.2403 15.4104 15.5825 15.7565 15.9323 16.11 16.2894 16.4705 16.6533 16.8376 17.0235 17.2109 17.3998 17.5901 17.7817 17.9747 18.169 18.3645 18.5612 18.7592 18.9582 19.1584 19.3597 19.562 19.7653 19.9696 20.1749 20.3811 20.5882 20.7963 21.0051 21.2148 21.4253 21.6366 21.8487 22.0615 22.2751 22.4893 22.7043 22.9199 23.1362 23.3531 23.5706 23.7887 24.0074 24.2267 
24.1229 23.9021 23.6817 23.4618 23.2425 23.0238 22.8057 22.5882 22.3715 22.1554 21.9401 21.7256 21.5118 21.2988 21.0866 20.8753 20.6648 20.4552 20.2464 20.0386 19.8317 19.6258 19.4208 19.2169 19.014 18.8122 18.6115 18.4119 18.2135 18.0163 17.8203 17.6256 17.4323 17.2403 17.0496 16.8605 16.6728 16.4866 16.3021 16.1191 15.9378 15.7583 15.5806 15.4046 15.2306 15.0586 14.8886 14.7207 14.5549 14.3914 14.2301 14.0712 13.9148 13.7608 13.6095 13.4608 13.3148 13.1717 13.0315 12.8943 12.7602 12.6293 12.5017 12.3774 12.2565 12.1392 12.0255 11.9156 11.8095 11.7072 11.609 11.5149 11.425 11.3394 11.2581 11.1812 11.1089 11.0412 10.9782 10.9199 10.8665 10.818 10.7744 10.7357 10.7022 10.6737 10.6504 10.6322 10.6192 10.6113 10.6087 10.6087 10.6087 10.6087 10.6087 10.6087 10.6087 10.6086 10.6086 10.6086 10.6086 10.6086 10.6086 10.6086 10.6086 10.6086 10.6086 10.6086 10.6085 10.6085 10.6085 10.6111 10.6189 10.6319 10.6501 10.6734 10.7019 10.7354 10.774 10.8176 10.8661 10.9195 10.9778 11.0408 11.1084 11.1807 11.2575 11.3388 11.4244 11.5143 11.6084 11.7066 11.8088 11.9149 12.0248 12.1384 12.2557 12.3765 12.5008 12.6284 12.7593 12.8934 13.0305 13.1707 13.3138 13.4597 13.6083 13.7596 13.9135 14.0699 14.2288 14.39 14.5535 14.7192 14.8871 15.0571 15.229 15.403 15.5788 15.7565 15.936 16.1172 16.3001 16.4846 16.6706 16.8582 17.0473 17.2378 17.4298 17.623 17.8176 18.0134 18.2105 18.4088 18.6082 18.8088 19.0104 19.2131 19.4169 19.6216 19.8273 20.0339 20.2415 20.4499 20.6593 20.8694 21.0804 21.2921 21.5047 21.718 21.932 22.1467 22.3621 22.5782 22.7949 23.0123 23.2303 23.4489 23.6681 23.8878 24.1081 
24.0062 23.7844 23.563 23.3421 23.1218 22.9021 22.6829 22.4644 22.2466 22.0294 21.8129 21.5972 21.3822 21.168 20.9546 20.742 20.5302 20.3192 20.1092 19.9 19.6917 19.4844 19.278 19.0727 18.8683 18.665 18.4628 18.2617 18.0618 17.863 17.6655 17.4692 17.2742 17.0805 16.8882 16.6973 16.5079 16.32 16.1337 15.9489 15.7659 15.5845 15.4049 15.2271 15.0513 14.8773 14.7054 14.5355 14.3678 14.2023 14.0391 13.8782 13.7197 13.5638 13.4104 13.2597 13.1117 12.9666 12.8243 12.6851 12.549 12.4161 12.2864 12.1602 12.0373 11.9181 11.8025 11.6907 11.5827 11.4787 11.3787 11.2829 11.1913 11.1041 11.0213 10.9429 10.8692 10.8002 10.7359 10.6765 10.622 10.5724 10.5279 10.4885 10.4543 10.4252 10.4013 10.3828 10.3695 10.3615 10.3588 10.3588 10.3588 10.3588 10.3588 10.3588 10.3587 10.3587 10.3587 10.3587 10.3587 10.3587 10.3587 10.3587 10.3587 10.3586 10.3586 10.3586 10.3586 10.3586 10.3586 10.3613 10.3692 10.3825 10.401 10.4249 10.4539 10.4882 10.5275 10.572 10.6215 10.676 10.7354 10.7997 10.8687 10.9424 11.0207 11.1035 11.1907 11.2823 11.3781 11.478 11.582 11.6899 11.8017 11.9173 12.0365 12.1592 12.2855 12.4151 12.548 12.6841 12.8233 12.9654 13.1105 13.2585 13.4091 13.5625 13.7184 13.8768 14.0376 14.2008 14.3663 14.5339 14.7038 14.8756 15.0495 15.2253 15.403 15.5826 15.7638 15.9468 16.1315 16.3178 16.5056 16.6949 16.8857 17.0779 17.2714 17.4663 17.6625 17.8599 18.0585 18.2583 18.4593 18.6613 18.8644 19.0686 19.2737 19.4799 19.687 19.895 20.1039 20.3136 20.5243 20.7357 20.9479 21.1609 21.3747 21.5892 21.8044 22.0203 22.2368 22.4541 22.6719 22.8904 23.1095 23.3291 23.5494 23.7702 23.9915 
23.8914 23.6686 23.4463 23.2244 23.0031 22.7823 22.5621 22.3425 22.1236 21.9053 21.6877 21.4708 21.2546 21.0392 20.8245 20.6107 20.3976 20.1853 19.9739 19.7634 19.5538 19.345 19.1373 18.9305 18.7247 18.5199 18.3162 18.1136 17.9121 17.7117 17.5126 17.3147 17.1181 16.9227 16.7288 16.5362 16.345 16.1554 15.9673 15.7807 15.5958 15.4126 15.2312 15.0515 14.8737 14.6979 14.524 14.3522 14.1825 14.015 13.8497 13.6868 13.5263 13.3683 13.2129 13.0601 12.9101 12.7628 12.6186 12.4773 12.3391 12.2041 12.0724 11.9441 11.8193 11.698 11.5805 11.4667 11.3569 11.251 11.1492 11.0516 10.9583 10.8694 10.785 10.7051 10.63 10.5595 10.494 10.4333 10.3777 10.3271 10.2817 10.2414 10.2064 10.1767 10.1524 10.1334 10.1198 10.1116 10.1089 10.1089 10.1089 10.1089 10.1089 10.1088 10.1088 10.1088 10.1088 10.1088 10.1088 10.1088 10.1088 10.1088 10.1087 10.1087 10.1087 10.1087 10.1087 10.1087 10.1087 10.1114 10.1195 10.1331 10.152 10.1764 10.206 10.241 10.2812 10.3266 10.3772 10.4328 10.4934 10.559 10.6294 10.7045 10.7843 10.8687 10.9576 11.0509 11.1485 11.2502 11.3561 11.4659 11.5796 11.6971 11.8183 11.9431 12.0714 12.203 12.338 12.4761 12.6174 12.7616 12.9088 13.0588 13.2115 13.3669 13.5249 13.6853 13.8482 14.0134 14.1808 14.3505 14.5222 14.696 14.8718 15.0496 15.2291 15.4105 15.5936 15.7785 15.9649 16.1529 16.3425 16.5335 16.726 16.9199 17.1151 17.3116 17.5094 17.7084 17.9086 18.1099 18.3124 18.5159 18.7205 18.9261 19.1327 19.3402 19.5487 19.758 19.9683 20.1794 20.3913 20.604 20.8175 21.0317 21.2467 21.4624 21.6788 21.8959 22.1136 22.3319 22.5509 22.7704 22.9906 23.2113 23.4326 23.6544 23.8768 
23.7786 23.5548 23.3315 23.1087 22.8863 22.6645 22.4433 22.2226 22.0026 21.7832 21.5645 21.3464 21.1291 20.9124 20.6965 20.4814 20.267 20.0535 19.8408 19.6289 19.4179 19.2078 18.9986 18.7904 18.5831 18.3769 18.1717 17.9675 17.7645 17.5626 17.3618 17.1623 16.964 16.767 16.5714 16.3771 16.1842 15.9928 15.8029 15.6145 15.4278 15.2427 15.0594 14.8779 14.6981 14.5203 14.3445 14.1707 13.999 13.8294 13.6621 13.4972 13.3346 13.1745 13.017 12.8621 12.7099 12.5606 12.4142 12.2708 12.1305 11.9934 11.8596 11.7292 11.6024 11.4791 11.3595 11.2438 11.1319 11.0241 10.9205 10.8211 10.726 10.6353 10.5493 10.4678 10.3911 10.3193 10.2524 10.1904 10.1336 10.082 10.0355 9.99442 9.95867 9.92832 9.90343 9.88403 9.87014 9.8618 9.85901 9.85899 9.85898 9.85896 9.85895 9.85893 9.85892 9.85891 9.85889 9.85888 9.85887 9.85886 9.85884 9.85883 9.85882 9.85881 9.8588 9.85879 9.85878 9.85877 9.85876 9.86152 9.86984 9.8837 9.90308 9.92794 9.95826 9.99399 10.0351 10.0815 10.1331 10.1899 10.2518 10.3187 10.3905 10.4672 10.5486 10.6346 10.7252 10.8203 10.9197 11.0233 11.1311 11.2428 11.3586 11.4781 11.6013 11.7282 11.8585 11.9923 12.1293 12.2696 12.4129 12.5593 12.7086 12.8607 13.0155 13.173 13.333 13.4955 13.6605 13.8277 13.9972 14.1688 14.3426 14.5183 14.6961 14.8757 15.0572 15.2405 15.4254 15.6121 15.8003 15.9901 16.1815 16.3742 16.5684 16.764 16.9608 17.159 17.3584 17.559 17.7607 17.9636 18.1676 18.3726 18.5786 18.7857 18.9937 19.2026 19.4125 19.6232 19.8348 20.0472 20.2604 20.4744 20.6891 20.9046 21.1208 21.3377 21.5552 21.7735 21.9923 22.2118 22.4319 22.6525 22.8737 23.0955 23.3178 23.5407 23.764 
23.6678 23.4431 23.2187 22.9949 22.7716 22.5487 22.3265 22.1048 21.8836 21.6631 21.4433 21.2241 21.0055 20.7877 20.5706 20.3542 20.1386 19.9237 19.7097 19.4965 19.2841 19.0726 18.862 18.6524 18.4437 18.236 18.0292 17.8236 17.619 17.4155 17.2132 17.012 16.8121 16.6134 16.4161 16.2201 16.0254 15.8323 15.6406 15.4504 15.2618 15.0749 14.8897 14.7062 14.5245 14.3447 14.1669 13.9911 13.8173 13.6457 13.4764 13.3093 13.1446 12.9824 12.8228 12.6658 12.5115 12.36 12.2114 12.0658 11.9234 11.7841 11.6482 11.5157 11.3866 11.2613 11.1396 11.0218 10.908 10.7982 10.6926 10.5913 10.4943 10.4019 10.3141 10.231 10.1528 10.0794 10.0111 9.94785 9.8898 9.83702 9.78959 9.74756 9.71101 9.67999 9.65453 9.63469 9.62049 9.61196 9.6091 9.60909 9.60907 9.60906 9.60904 9.60903 9.60901 9.609 9.60898 9.60897 9.60896 9.60894 9.60893 9.60892 9.6089 9.60889 9.60888 9.60887 9.60886 9.60885 9.60883 9.61166 9.62017 9.63434 9.65415 9.67958 9.71057 9.7471 9.78909 9.8365 9.88925 9.94727 10.0105 10.0788 10.1521 10.2303 10.3134 10.4012 10.4935 10.5904 10.6917 10.7973 10.907 11.0208 11.1386 11.2602 11.3855 11.5145 11.647 11.7829 11.9221 12.0645 12.21 12.3586 12.51 12.6642 12.8212 12.9808 13.143 13.3076 13.4746 13.6439 13.8154 13.9891 14.1648 14.3426 14.5223 14.7039 14.8873 15.0724 15.2593 15.4478 15.6378 15.8294 16.0225 16.217 16.4129 16.6102 16.8087 17.0085 17.2095 17.4117 17.615 17.8194 18.0249 18.2314 18.4389 18.6474 18.8568 19.0672 19.2784 19.4905 19.7034 19.9171 20.1316 20.3469 20.5629 20.7796 20.997 21.215 21.4338 21.6531 21.8731 22.0937 22.3149 22.5366 22.7589 22.9817 23.2051 23.4289 23.6533 