# vtk DataFile Version 2.0
2D Surface
ASCII
DATASET RECTILINEAR_GRID
DIMENSIONS 101 101 1
X_COORDINATES 101 float
0
0.1
0.2
0.3
0.4
0.5
0.6
0.7
0.8
0.9
1
1.1
1.2
1.3
1.4
1.5
1.6
1.7
1.8
1.9
2
2.1
2.2
2.3
2.4
2.5
2.6
2.7
2.8
2.9
3
3.1
3.2
3.3
3.4
3.5
3.6
3.7
3.8
3.9
4
4.1
4.2
4.3
4.4
4.5
4.6
4.7
4.8
4.9
5
5.1
5.2
5.3
5.4
5.5
5.6
5.7
5.8
5.9
6
6.1
6.2
6.3
6.4
6.5
6.6
6.7
6.8
6.9
7
7.1
7.2
7.3
7.4
7.5
7.6
7.7
7.8
7.9
8
8.1
8.2
8.3
8.4
8.5
8.6
8.7
8.8
8.9
9
9.1
9.2
9.3
9.4
9.5
9.6
9.7
9.8
9.9
10
Y_COORDINATES 101 float
0
0.1
0.2
0.3
0.4
0.5
0.6
0.7
0.8
0.9
1
1.1
1.2
1.3
1.4
1.5
1.6
1.7
1.8
1.9
2
2.1
2.2
2.3
2.4
2.5
2.6
2.7
2.8
2.9
3
3.1
3.2
3.3
3.4
3.5
3.6
3.7
3.8
3.9
4
4.1
4.2
4.3
4.4
4.5
4.6
4.7
4.8
4.9
5
5.1
5.2
5.3
5.4
5.5
5.6
5.7
5.8
5.9
6
6.1
6.2
6.3
6.4
6.5
6.6
6.7
6.8
6.9
7
7.1
7.2
7.3
7.4
7.5
7.6
7.7
7.8
7.9
8
8.1
8.2
8.3
8.4
8.5
8.6
8.7
8.8
8.9
9
9.1
9.2
9.3
9.4
9.5
9.6
9.7
9.8
9.9
10
Z_COORDINATES 1 float
0
POINT_DATA 10201
SCALARS SDValues float
LOOKUP_TABLE default
4.07107 4.00071 3.93109 3.86222 3.79412 3.72681 3.66033 3.59469 3.52993 3.46607 3.40312 3.34114 3.28013 3.22013 3.16117 3.10328 3.04649 2.99083 2.93633 2.88303 2.83095 2.78014 2.73062 2.68243 2.6356 2.59017 2.54617 2.50364 2.4626 2.4231 2.38516 2.34883 2.31413 2.2811 2.24976 2.22015 2.1923 2.16624 2.14198 2.11957 2.09902 2.08035 2.0636 2.04876 2.03587 2.02494 2.01597 2.00899 2.004 2.001 2 2.001 2.004 2.00899 2.01597 2.02494 2.03587 2.04876 2.0636 2.08035 2.09902 2.11957 2.14198 2.16624 2.1923 2.22015 2.24976 2.2811 2.31413 2.34883 2.38516 2.4231 2.4626 2.50364 2.54617 2.59017 2.6356 2.68243 2.73062 2.78014 2.83095 2.88303 2.93633 2.99083 3.04649 3.10328 3.16117 3.22013 3.28013 3.34114 3.40312 3.46607 3.52993 3.59469 3.66033 3.72681 3.79412 3.86222 3.93109 4.00071 4.07107 
4.00071 3.92965 3.8593 3.7897 3.72086 3.65282 3.58559 3.5192 3.45368 3.38905 3.32535 3.26259 3.20081 3.14003 3.0803 3.02163 2.96406 2.90762 2.85235 2.79828 2.74543 2.69386 2.64358 2.59464 2.54707 2.50091 2.45619 2.41295 2.37122 2.33104 2.29245 2.25547 2.22015 2.18652 2.15461 2.12445 2.09608 2.06952 2.0448 2.02195 2.001 1.98197 1.96488 1.94975 1.9366 1.92544 1.9163 1.90918 1.90408 1.90102 1.9 1.90102 1.90408 1.90918 1.9163 1.92544 1.9366 1.94975 1.96488 1.98197 2.001 2.02195 2.0448 2.06952 2.09608 2.12445 2.15461 2.18652 2.22015 2.25547 2.29245 2.33104 2.37122 2.41295 2.45619 2.50091 2.54707 2.59464 2.64358 2.69386 2.74543 2.79828 2.85235 2.90762 2.96406 3.02163 3.0803 3.14003 3.20081 3.26259 3.32535 3.38905 3.45368 3.5192 3.58559 3.65282 3.72086 3.7897 3.8593 3.92965 4.00071 
3.93109 3.8593 3.78823 3.71789 3.64831 3.57951 3.51153 3.44438 3.37809 3.31269 3.2482 3.18466 3.12209 3.06053 3 2.94054 2.88218 2.82495 2.76888 2.71402 2.66039 2.60803 2.55698 2.50727 2.45894 2.41202 2.36656 2.32259 2.28015 2.23927 2.2 2.16236 2.1264 2.09215 2.05964 2.02892 2 1.97293 1.94773 1.92443 1.90306 1.88365 1.86621 1.85077 1.83735 1.82597 1.81664 1.80937 1.80416 1.80104 1.8 1.80104 1.80416 1.80937 1.81664 1.82597 1.83735 1.85077 1.86621 1.88365 1.90306 1.92443 1.94773 1.97293 2 2.02892 2.05964 2.09215 2.1264 2.16236 2.2 2.23927 2.28015 2.32259 2.36656 2.41202 2.45894 2.50727 2.55698 2.60803 2.66039 2.71402 2.76888 2.82495 2.88218 2.94054 3 3.06053 3.12209 3.18466 3.2482 3.31269 3.37809 3.44438 3.51153 3.57951 3.64831 3.71789 3.78823 3.8593 3.93109 
3.86222 3.7897 3.71789 3.6468 3.57647 3.50692 3.43817 3.37024 3.30317 3.23699 3.17171 3.10737 3.04401 2.98164 2.9203 2.86003 2.80086 2.74282 2.68595 2.63028 2.57584 2.52268 2.47083 2.42033 2.37122 2.32353 2.27731 2.23259 2.18941 2.14782 2.10784 2.06952 2.03289 1.998 1.96488 1.93356 1.90408 1.87647 1.85077 1.82701 1.80521 1.78539 1.7676 1.75184 1.73814 1.72652 1.71699 1.70956 1.70425 1.70106 1.7 1.70106 1.70425 1.70956 1.71699 1.72652 1.73814 1.75184 1.7676 1.78539 1.80521 1.82701 1.85077 1.87647 1.90408 1.93356 1.96488 1.998 2.03289 2.06952 2.10784 2.14782 2.18941 2.23259 2.27731 2.32353 2.37122 2.42033 2.47083 2.52268 2.57584 2.63028 2.68595 2.74282 2.80086 2.86003 2.9203 2.98164 3.04401 3.10737 3.17171 3.23699 3.30317 3.37024 3.43817 3.50692 3.57647 3.6468 3.71789 3.7897 3.86222 
3.79412 3.72086 3.64831 3.57647 3.50538 3.43506 3.36553 3.29682 3.22896 3.16198 3.0959 3.03075 2.96657 2.90339 2.84123 2.78014 2.72014 2.66127 2.60357 2.54707 2.49181 2.43783 2.38516 2.33385 2.28394 2.23546 2.18845 2.14296 2.09902 2.05668 2.01597 1.97695 1.93964 1.90408 1.87032 1.83839 1.80833 1.78017 1.75395 1.72969 1.70744 1.68722 1.66905 1.65296 1.63897 1.62709 1.61736 1.60977 1.60435 1.60109 1.6 1.60109 1.60435 1.60977 1.61736 1.62709 1.63897 1.65296 1.66905 1.68722 1.70744 1.72969 1.75395 1.78017 1.80833 1.83839 1.87032 1.90408 1.93964 1.97695 2.01597 2.05668 2.09902 2.14296 2.18845 2.23546 2.28394 2.33385 2.38516 2.43783 2.49181 2.54707 2.60357 2.66127 2.72014 2.78014 2.84123 2.90339 2.96657 3.03075 3.0959 3.16198 3.22896 3.29682 3.36553 3.43506 3.50538 3.57647 3.64831 3.72086 3.79412 
3.72681 3.65282 3.57951 3.50692 3.43506 3.36396 3.29365 3.22415 3.15549 3.08769 3.0208 2.95483 2.88982 2.8258 2.76281 2.70088 2.64004 2.58032 2.52178 2.46443 2.40833 2.3535 2.3 2.24786 2.19711 2.14782 2.1 2.05371 2.00899 1.96588 1.92443 1.88467 1.84665 1.81041 1.77598 1.74342 1.71275 1.68402 1.65725 1.63249 1.60977 1.58912 1.57056 1.55412 1.53982 1.52769 1.51774 1.50999 1.50444 1.50111 1.5 1.50111 1.50444 1.50999 1.51774 1.52769 1.53982 1.55412 1.57056 1.58912 1.60977 1.63249 1.65725 1.68402 1.71275 1.74342 1.77598 1.81041 1.84665 1.88467 1.92443 1.96588 2.00899 2.05371 2.1 2.14782 2.19711 2.24786 2.3 2.3535 2.40833 2.46443 2.52178 2.58032 2.64004 2.70088 2.76281 2.8258 2.88982 2.95483 3.0208 3.08769 3.15549 3.22415 3.29365 3.36396 3.43506 3.50692 3.57951 3.65282 3.72681 
3.66033 3.58559 3.51153 3.43817 3.36553 3.29365 3.22254 3.15224 3.08276 3.01415 2.94643 2.87963 2.81378 2.74891 2.68507 2.62228 2.56058 2.5 2.44059 2.38238 2.32541 2.26972 2.21536 2.16236 2.11077 2.06063 2.01199 1.96488 1.91935 1.87545 1.83322 1.7927 1.75395 1.71699 1.68188 1.64866 1.61736 1.58803 1.5607 1.53542 1.51221 1.4911 1.47214 1.45533 1.44072 1.42832 1.41814 1.41022 1.40454 1.40114 1.4 1.40114 1.40454 1.41022 1.41814 1.42832 1.44072 1.45533 1.47214 1.4911 1.51221 1.53542 1.5607 1.58803 1.61736 1.64866 1.68188 1.71699 1.75395 1.7927 1.83322 1.87545 1.91935 1.96488 2.01199 2.06063 2.11077 2.16236 2.21536 2.26972 2.32541 2.38238 2.44059 2.5 2.56058 2.62228 2.68507 2.74891 2.81378 2.87963 2.94643 3.01415 3.08276 3.15224 3.22254 3.29365 3.36553 3.43817 3.51153 3.58559 3.66033 
3.59469 3.5192 3.44438 3.37024 3.29682 3.22415 3.15224 3.08112 3.01082 2.94138 2.87282 2.80517 2.73847 2.67274 2.60803 2.54437 2.48179 2.42033 2.36004 2.30094 2.24309 2.18652 2.13128 2.0774 2.02494 1.97393 1.92443 1.87647 1.83011 1.78539 1.74236 1.70106 1.66154 1.62385 1.58803 1.55412 1.52217 1.49222 1.4643 1.43847 1.41475 1.39318 1.37379 1.3566 1.34166 1.32897 1.31856 1.31045 1.30465 1.30116 1.3 1.30116 1.30465 1.31045 1.31856 1.32897 1.34166 1.3566 1.37379 1.39318 1.41475 1.43847 1.4643 1.49222 1.52217 1.55412 1.58803 1.62385 1.66154 1.70106 1.74236 1.78539 1.83011 1.87647 1.92443 1.97393 2.02494 2.0774 2.13128 2.18652 2.24309 2.30094 2.36004 2.42033 2.48179 2.54437 2.60803 2.67274 2.73847 2.80517 2.87282 2.94138 3.01082 3.08112 3.15224 3.22415 3.29682 3.37024 3.44438 3.5192 3.59469 
3.52993 3.45368 3.37809 3.30317 3.22896 3.15549 3.08276 3.01082 2.9397 2.86941 2.8 2.73149 2.66392 2.59732 2.53173 2.46717 2.4037 2.34135 2.28015 2.22015 2.1614 2.10392 2.04777 1.993 1.93964 1.88774 1.83735 1.78853 1.74131 1.69574 1.65188 1.60977 1.56946 1.531 1.49444 1.45982 1.42719 1.39659 1.36807 1.34166 1.31741 1.29535 1.27551 1.25793 1.24264 1.22966 1.219 1.2107 1.20476 1.20119 1.2 1.20119 1.20476 1.2107 1.219 1.22966 1.24264 1.25793 1.27551 1.29535 1.31741 1.34166 1.36807 1.39659 1.42719 1.45982 1.49444 1.531 1.56946 1.60977 1.65188 1.69574 1.74131 1.78853 1.83735 1.88774 1.93964 1.993 2.04777 2.10392 2.1614 2.22015 2.28015 2.34135 2.4037 2.46717 2.53173 2.59732 2.66392 2.73149 2.8 2.86941 2.9397 3.01082 3.08276 3.15549 3.22896 3.30317 3.37809 3.45368 3.52993 
3.46607 3.38905 3.31269 3.23699 3.16198 3.08769 3.01415 2.94138 2.86941 2.79828 2.728 2.65862 2.59017 2.52268 2.45619 2.39073 2.32635 2.26308 2.20096 2.14004 2.08035 2.02195 1.96488 1.90918 1.85489 1.80208 1.75079 1.70106 1.65296 1.60652 1.5618 1.51885 1.47772 1.43847 1.40114 1.36578 1.33244 1.30116 1.272 1.245 1.22019 1.19762 1.17732 1.15933 1.14367 1.13038 1.11947 1.11096 1.10488 1.10122 1.1 1.10122 1.10488 1.11096 1.11947 1.13038 1.14367 1.15933 1.17732 1.19762 1.22019 1.245 1.272 1.30116 1.33244 1.36578 1.40114 1.43847 1.47772 1.51885 1.5618 1.60652 1.65296 1.70106 1.75079 1.80208 1.85489 1.90918 1.96488 2.02195 2.08035 2.14004 2.20096 2.26308 2.32635 2.39073 2.45619 2.52268 2.59017 2.65862 2.728 2.79828 2.86941 2.94138 3.01415 3.08769 3.16198 3.23699 3.31269 3.38905 3.46607 
3.40312 3.32535 3.2482 3.17171 3.0959 3.0208 2.94643 2.87282 2.8 2.728 2.65685 2.58659 2.51725 2.44885 2.38145 2.31507 2.24976 2.18556 2.1225 2.06063 2 1.94065 1.88262 1.82597 1.77074 1.71699 1.66476 1.61411 1.56508 1.51774 1.47214 1.42832 1.38634 1.34626 1.30813 1.272 1.23792 1.20595 1.17612 1.14849 1.12311 1.1 1.07922 1.06079 1.04475 1.03113 1.01995 1.01123 1.005 1.00125 1 1.00125 1.005 1.01123 1.01995 1.03113 1.04475 1.06079 1.07922 1.1 1.12311 1.14849 1.17612 1.20595 1.23792 1.272 1.30813 1.34626 1.38634 1.42832 1.47214 1.51774 1.56508 1.61411 1.66476 1.71699 1.77074 1.82597 1.88262 1.94065 2 2.06063 2.1225 2.18556 2.24976 2.31507 2.38145 2.44885 2.51725 2.58659 2.65685 2.728 2.8 2.87282 2.94643 3.0208 3.0959 3.17171 3.2482 3.32535 3.40312 
3.34114 3.26259 3.18466 3.10737 3.03075 2.95483 2.87963 2.80517 2.73149 2.65862 2.58659 2.51543 2.44518 2.37587 2.30754 2.24023 2.17397 2.10882 2.0448 1.98197 1.92037 1.86004 1.80104 1.74342 1.68722 1.63249 1.5793 1.52769 1.47772 1.42945 1.38292 1.3382 1.29535 1.25441 1.21545 1.17852 1.14367 1.11096 1.08044 1.05216 1.02616 1.0025 0.981206 0.962323 0.945884 0.931921 0.920459 0.911521 0.905125 0.901282 0.9 0.901282 0.905125 0.911521 0.920459 0.931921 0.945884 0.962323 0.981206 1.0025 1.02616 1.05216 1.08044 1.11096 1.14367 1.17852 1.21545 1.25441 1.29535 1.3382 1.38292 1.42945 1.47772 1.52769 1.5793 1.63249 1.68722 1.74342 1.80104 1.86004 1.92037 1.98197 2.0448 2.10882 2.17397 2.24023 2.30754 2.37587 2.44518 2.51543 2.58659 2.65862 2.73149 2.80517 2.87963 2.95483 3.03075 3.10737 3.18466 3.26259 3.34114 
3.28013 3.20081 3.12209 3.04401 2.96657 2.88982 2.81378 2.73847 2.66392 2.59017 2.51725 2.44518 2.37401 2.30377 2.2345 2.16624 2.09902 2.03289 1.9679 1.90408 1.84149 1.78017 1.72017 1.66154 1.60435 1.54863 1.49444 1.44185 1.3909 1.34166 1.29418 1.24853 1.20476 1.16293 1.12311 1.08534 1.04969 1.01622 0.984972 0.956008 0.929377 0.905125 0.883298 0.863936 0.847077 0.832754 0.820995 0.811824 0.80526 0.801316 0.8 0.801316 0.80526 0.811824 0.820995 0.832754 0.847077 0.863936 0.883298 0.905125 0.929377 0.956008 0.984972 1.01622 1.04969 1.08534 1.12311 1.16293 1.20476 1.24853 1.29418 1.34166 1.3909 1.44185 1.49444 1.54863 1.60435 1.66154 1.72017 1.78017 1.84149 1.90408 1.9679 2.03289 2.09902 2.16624 2.2345 2.30377 2.37401 2.44518 2.51725 2.59017 2.66392 2.73847 2.81378 2.88982 2.96657 3.04401 3.12209 3.20081 3.28013 
3.22013 3.14003 3.06053 2.98164 2.90339 2.8258 2.74891 2.67274 2.59732 2.52268 2.44885 2.37587 2.30377 2.23259 2.16236 2.09313 2.02494 1.95782 1.89183 1.82701 1.7634 1.70106 1.64004 1.58039 1.52217 1.46542 1.41022 1.3566 1.30465 1.25441 1.20595 1.15933 1.11461 1.07185 1.03113 0.992493 0.956008 0.921734 0.88973 0.860052 0.832754 0.807887 0.785499 0.765634 0.748333 0.733631 0.721559 0.712142 0.705401 0.701351 0.7 0.701351 0.705401 0.712142 0.721559 0.733631 0.748333 0.765634 0.785499 0.807887 0.832754 0.860052 0.88973 0.921734 0.956008 0.992493 1.03113 1.07185 1.11461 1.15933 1.20595 1.25441 1.30465 1.3566 1.41022 1.46542 1.52217 1.58039 1.64004 1.70106 1.7634 1.82701 1.89183 1.95782 2.02494 2.09313 2.16236 2.23259 2.30377 2.37587 2.44885 2.52268 2.59732 2.67274 2.74891 2.8258 2.90339 2.98164 3.06053 3.14003 3.22013 
3.16117 3.0803 3 2.9203 2.84123 2.76281 2.68507 2.60803 2.53173 2.45619 2.38145 2.30754 2.2345 2.16236 2.09117 2.02096 1.95177 1.88365 1.81664 1.75079 1.68615 1.62277 1.5607 1.5 1.44072 1.38292 1.32666 1.272 1.219 1.16773 1.11825 1.07063 1.02492 0.981206 0.939543 0.9 0.862642 0.827532 0.794733 0.764306 0.736308 0.710795 0.687818 0.667424 0.649658 0.634556 0.622154 0.612478 0.605551 0.601389 0.6 0.601389 0.605551 0.612478 0.622154 0.634556 0.649658 0.667424 0.687818 0.710795 0.736308 0.764306 0.794733 0.827532 0.862642 0.9 0.939543 0.981206 1.02492 1.07063 1.11825 1.16773 1.219 1.272 1.32666 1.38292 1.44072 1.5 1.5607 1.62277 1.68615 1.75079 1.81664 1.88365 1.95177 2.02096 2.09117 2.16236 2.2345 2.30754 2.38145 2.45619 2.53173 2.60803 2.68507 2.76281 2.84123 2.9203 3 3.0803 3.16117 
3.10328 3.02163 2.94054 2.86003 2.78014 2.70088 2.62228 2.54437 2.46717 2.39073 2.31507 2.24023 2.16624 2.09313 2.02096 1.94975 1.87955 1.81041 1.74236 1.67547 1.60977 1.54533 1.48219 1.42041 1.36005 1.30116 1.24382 1.18808 1.13401 1.08167 1.03113 0.982462 0.935734 0.891015 0.848376 0.807887 0.769615 0.733631 0.7 0.668787 0.640055 0.613862 0.590265 0.569314 0.551056 0.535534 0.522783 0.512834 0.50571 0.501428 0.5 0.501428 0.50571 0.512834 0.522783 0.535534 0.551056 0.569314 0.590265 0.613862 0.640055 0.668787 0.7 0.733631 0.769615 0.807887 0.848376 0.891015 0.935734 0.982462 1.03113 1.08167 1.13401 1.18808 1.24382 1.30116 1.36005 1.42041 1.48219 1.54533 1.60977 1.67547 1.74236 1.81041 1.87955 1.94975 2.02096 2.09313 2.16624 2.24023 2.31507 2.39073 2.46717 2.54437 2.62228 2.70088 2.78014 2.86003 2.94054 3.02163 3.10328 
3.04649 2.96406 2.88218 2.80086 2.72014 2.64004 2.56058 2.48179 2.4037 2.32635 2.24976 2.17397 2.09902 2.02494 1.95177 1.87955 1.80833 1.73814 1.66905 1.60109 1.53431 1.46878 1.40454 1.34166 1.28019 1.22019 1.16173 1.10488 1.04969 0.996248 0.944617 0.894868 0.847077 0.801316 0.757659 0.716181 0.676955 0.640055 0.605551 0.573514 0.544009 0.517101 0.49285 0.471311 0.452535 0.436568 0.423449 0.41321 0.405877 0.40147 0.4 0.40147 0.405877 0.41321 0.423449 0.436568 0.452535 0.471311 0.49285 0.517101 0.544009 0.573514 0.605551 0.640055 0.676955 0.716181 0.757659 0.801316 0.847077 0.894868 0.944617 0.996248 1.04969 1.10488 1.16173 1.22019 1.28019 1.34166 1.40454 1.46878 1.53431 1.60109 1.66905 1.73814 1.80833 1.87955 1.95177 2.02494 2.09902 2.17397 2.24976 2.32635 2.4037 2.48179 2.56058 2.64004 2.72014 2.80086 2.88218 2.96406 3.04649 
2.99083 2.90762 2.82495 2.74282 2.66127 2.58032 2.5 2.42033 2.34135 2.26308 2.18556 2.10882 2.03289 1.95782 1.88365 1.81041 1.73814 1.6669 1.59674 1.52769 1.45982 1.39318 1.32782 1.2638 1.20119 1.14005 1.08044 1.02244 0.966106 0.911521 0.858756 0.807887 0.758989 0.712142 0.667424 0.624914 0.58469 0.54683 0.51141 0.478505 0.448188 0.420526 0.395585 0.373426 0.354102 0.337664 0.324154 0.313608 0.306055 0.301515 0.3 0.301515 0.306055 0.313608 0.324154 0.337664 0.354102 0.373426 0.395585 0.420526 0.448188 0.478505 0.51141 0.54683 0.58469 0.624914 0.667424 0.712142 0.758989 0.807887 0.858756 0.911521 0.966106 1.02244 1.08044 1.14005 1.20119 1.2638 1.32782 1.39318 1.45982 1.52769 1.59674 1.6669 1.73814 1.81041 1.88365 1.95782 2.03289 2.10882 2.18556 2.26308 2.34135 2.42033 2.5 2.58032 2.66127 2.74282 2.82495 2.90762 2.99083 
2.93633 2.85235 2.76888 2.68595 2.60357 2.52178 2.44059 2.36004 2.28015 2.20096 2.1225 2.0448 1.9679 1.89183 1.81664 1.74236 1.66905 1.59674 1.52548 1.45533 1.38634 1.31856 1.25206 1.18688 1.12311 1.06079 1 0.940812 0.883298 0.827532 0.773592 0.721559 0.671512 0.623534 0.577709 0.534119 0.49285 0.453983 0.417601 0.383785 0.352611 0.324154 0.298485 0.275668 0.255764 0.238827 0.224903 0.214032 0.206244 0.201562 0.2 0.201562 0.206244 0.214032 0.224903 0.238827 0.255764 0.275668 0.298485 0.324154 0.352611 0.383785 0.417601 0.453983 0.49285 0.534119 0.577709 0.623534 0.671512 0.721559 0.773592 0.827532 0.883298 0.940812 1 1.06079 1.12311 1.18688 1.25206 1.31856 1.38634 1.45533 1.52548 1.59674 1.66905 1.74236 1.81664 1.89183 1.9679 2.0448 2.1225 2.20096 2.28015 2.36004 2.44059 2.52178 2.60357 2.68595 2.76888 2.85235 2.93633 
2.88303 2.79828 2.71402 2.63028 2.54707 2.46443 2.38238 2.30094 2.22015 2.14004 2.06063 1.98197 1.90408 1.82701 1.75079 1.67547 1.60109 1.52769 1.45533 1.38406 1.31393 1.245 1.17732 1.11096 1.04599 0.982462 0.920459 0.860052 0.801316 0.744329 0.689173 0.635932 0.58469 0.535534 0.488553 0.443835 0.40147 0.361547 0.324154 0.289377 0.257299 0.228002 0.201562 0.17805 0.157531 0.140064 0.1257 0.114482 0.106445 0.101612 0.1 0.101612 0.106445 0.114482 0.1257 0.140064 0.157531 0.17805 0.201562 0.228002 0.257299 0.289377 0.324154 0.361547 0.40147 0.443835 0.488553 0.535534 0.58469 0.635932 0.689173 0.744329 0.801316 0.860052 0.920459 0.982462 1.04599 1.11096 1.17732 1.245 1.31393 1.38406 1.45533 1.52769 1.60109 1.67547 1.75079 1.82701 1.90408 1.98197 2.06063 2.14004 2.22015 2.30094 2.38238 2.46443 2.54707 2.63028 2.71402 2.79828 2.88303 
2.83095 2.74543 2.66039 2.57584 2.49181 2.40833 2.32541 2.24309 2.1614 2.08035 2 1.92037 1.84149 1.7634 1.68615 1.60977 1.53431 1.45982 1.38634 1.31393 1.24264 1.17253 1.10366 1.03609 0.969887 0.905125 0.841875 0.780212 0.720215 0.661967 0.605551 0.551056 0.498571 0.448188 0.4 0.354102 0.310589 0.269557 0.231099 0.195309 0.162278 0.132092 0.104835 0.0805844 0.0594117 0.0413813 0.0265492 0.0149627 0.00665928 0.0016662 0 0.0016662 0.00665928 0.0149627 0.0265492 0.0413813 0.0594117 0.0805844 0.104835 0.132092 0.162278 0.195309 0.231099 0.269557 0.310589 0.354102 0.4 0.448188 0.498571 0.551056 0.605551 0.661967 0.720215 0.780212 0.841875 0.905125 0.969887 1.03609 1.10366 1.17253 1.24264 1.31393 1.38634 1.45982 1.53431 1.60977 1.68615 1.7634 1.84149 1.92037 2 2.08035 2.1614 2.24309 2.32541 2.40833 2.49181 2.57584 2.66039 2.74543 2.83095 
2.78014 2.69386 2.60803 2.52268 2.43783 2.3535 2.26972 2.18652 2.10392 2.02195 1.94065 1.86004 1.78017 1.70106 1.62277 1.54533 1.46878 1.39318 1.31856 1.245 1.17253 1.10122 1.03113 0.962323 0.894868 0.828838 0.764306 0.701351 0.640055 0.580503 0.522783 0.466987 0.41321 0.361547 0.312099 0.264966 0.220248 0.17805 0.138471 0.101612 0.0675723 0.0364453 0.00832179 -0.0167132 -0.0385814 -0.0572122 -0.0725438 -0.0845241 -0.0931116 -0.0982764 -0.1 -0.0982764 -0.0931116 -0.0845241 -0.0725438 -0.0572122 -0.0385814 -0.0167132 0.00832179 0.0364453 0.0675723 0.101612 0.138471 0.17805 0.220248 0.264966 0.312099 0.361547 0.41321 0.466987 0.522783 0.580503 0.640055 0.701351 0.764306 0.828838 0.894868 0.962323 1.03113 1.10122 1.17253 1.245 1.31856 1.39318 1.46878 1.54533 1.62277 1.70106 1.78017 1.86004 1.94065 2.02195 2.10392 2.18652 2.26972 2.3535 2.43783 2.52268 2.60803 2.69386 2.78014 
2.73062 2.64358 2.55698 2.47083 2.38516 2.3 2.21536 2.13128 2.04777 1.96488 1.88262 1.80104 1.72017 1.64004 1.5607 1.48219 1.40454 1.32782 1.25206 1.17732 1.10366 1.03113 0.959798 0.88973 0.820995 0.753665 0.687818 0.623534 0.560899 0.5 0.44093 0.383785 0.328663 0.275668 0.224903 0.176476 0.130495 0.0870698 0.0463092 0.00832179 -0.0267863 -0.0589118 -0.087956 -0.113826 -0.136436 -0.155707 -0.171573 -0.183974 -0.192866 -0.198215 -0.2 -0.198215 -0.192866 -0.183974 -0.171573 -0.155707 -0.136436 -0.113826 -0.087956 -0.0589118 -0.0267863 0.00832179 0.0463092 0.0870698 0.130495 0.176476 0.224903 0.275668 0.328663 0.383785 0.44093 0.5 0.560899 0.623534 0.687818 0.753665 0.820995 0.88973 0.959798 1.03113 1.10366 1.17732 1.25206 1.32782 1.40454 1.48219 1.5607 1.64004 1.72017 1.80104 1.88262 1.96488 2.04777 2.13128 2.21536 2.3 2.38516 2.47083 2.55698 2.64358 2.73062 
2.68243 2.59464 2.50727 2.42033 2.33385 2.24786 2.16236 2.0774 1.993 1.90918 1.82597 1.74342 1.66154 1.58039 1.5 1.42041 1.34166 1.2638 1.18688 1.11096 1.03609 0.962323 0.88973 0.818377 0.748333 0.679674 0.612478 0.54683 0.482815 0.420526 0.36006 0.301515 0.244996 0.190611 0.138471 0.088689 0.0413813 -0.00333519 -0.0453427 -0.0845241 -0.120764 -0.15395 -0.183974 -0.210735 -0.234137 -0.254094 -0.270531 -0.283384 -0.292603 -0.298149 -0.3 -0.298149 -0.292603 -0.283384 -0.270531 -0.254094 -0.234137 -0.210735 -0.183974 -0.15395 -0.120764 -0.0845241 -0.0453427 -0.00333519 0.0413813 0.088689 0.138471 0.190611 0.244996 0.301515 0.36006 0.420526 0.482815 0.54683 0.612478 0.679674 0.748333 0.818377 0.88973 0.962323 1.03609 1.11096 1.18688 1.2638 1.34166 1.42041 1.5 1.58039 1.66154 1.74342 1.82597 1.90918 1.993 2.0774 2.16236 2.24786 2.33385 2.42033 2.50727 2.59464 2.68243 
2.6356 2.54707 2.45894 2.37122 2.28394 2.19711 2.11077 2.02494 1.93964 1.85489 1.77074 1.68722 1.60435 1.52217 1.44072 1.36005 1.28019 1.20119 1.12311 1.04599 0.969887 0.894868 0.820995 0.748333 0.676955 0.606938 0.538361 0.471311 0.405877 0.342155 0.280244 0.220248 0.162278 0.106445 0.0528675 0.0016662 -0.0470354 -0.0931116 -0.136436 -0.176881 -0.214322 -0.248637 -0.279706 -0.307418 -0.331667 -0.35236 -0.369411 -0.38275 -0.392319 -0.398078 -0.4 -0.398078 -0.392319 -0.38275 -0.369411 -0.35236 -0.331667 -0.307418 -0.279706 -0.248637 -0.214322 -0.176881 -0.136436 -0.0931116 -0.0470354 0.0016662 0.0528675 0.106445 0.162278 0.220248 0.280244 0.342155 0.405877 0.471311 0.538361 0.606938 0.676955 0.748333 0.820995 0.894868 0.969887 1.04599 1.12311 1.20119 1.28019 1.36005 1.44072 1.52217 1.60435 1.68722 1.77074 1.85489 1.93964 2.02494 2.11077 2.19711 2.28394 2.37122 2.45894 2.54707 2.6356 
2.59017 2.50091 2.41202 2.32353 2.23546 2.14782 2.06063 1.97393 1.88774 1.80208 1.71699 1.63249 1.54863 1.46542 1.38292 1.30116 1.22019 1.14005 1.06079 0.982462 0.905125 0.828838 0.753665 0.679674 0.606938 0.535534 0.465545 0.397058 0.330165 0.264966 0.201562 0.140064 0.0805844 0.0232433 -0.0318356 -0.0845241 -0.13469 -0.182199 -0.226915 -0.2687 -0.307418 -0.342934 -0.375119 -0.403849 -0.429008 -0.45049 -0.468202 -0.482064 -0.492013 -0.498001 -0.5 -0.498001 -0.492013 -0.482064 -0.468202 -0.45049 -0.429008 -0.403849 -0.375119 -0.342934 -0.307418 -0.2687 -0.226915 -0.182199 -0.13469 -0.0845241 -0.0318356 0.0232433 0.0805844 0.140064 0.201562 0.264966 0.330165 0.397058 0.465545 0.535534 0.606938 0.679674 0.753665 0.828838 0.905125 0.982462 1.06079 1.14005 1.22019 1.30116 1.38292 1.46542 1.54863 1.63249 1.71699 1.80208 1.88774 1.97393 2.06063 2.14782 2.23546 2.32353 2.41202 2.50091 2.59017 
2.54617 2.45619 2.36656 2.27731 2.18845 2.1 2.01199 1.92443 1.83735 1.75079 1.66476 1.5793 1.49444 1.41022 1.32666 1.24382 1.16173 1.08044 1 0.920459 0.841875 0.764306 0.687818 0.612478 0.538361 0.465545 0.394113 0.324154 0.255764 0.189044 0.1241 0.0610456 0 -0.0589118 -0.115559 -0.169806 -0.221511 -0.270531 -0.316718 -0.359924 -0.4 -0.436799 -0.470178 -0.5 -0.526137 -0.54847 -0.566895 -0.581323 -0.591681 -0.597918 -0.6 -0.597918 -0.591681 -0.581323 -0.566895 -0.54847 -0.526137 -0.5 -0.470178 -0.436799 -0.4 -0.359924 -0.316718 -0.270531 -0.221511 -0.169806 -0.115559 -0.0589118 4.44089e-16 0.0610456 0.1241 0.189044 0.255764 0.324154 0.394113 0.465545 0.538361 0.612478 0.687818 0.764306 0.841875 0.920459 1 1.08044 1.16173 1.24382 1.32666 1.41022 1.49444 1.5793 1.66476 1.75079 1.83735 1.92443 2.01199 2.1 2.18845 2.27731 2.36656 2.45619 2.54617 
2.50364 2.41295 2.32259 2.23259 2.14296 2.05371 1.96488 1.87647 1.78853 1.70106 1.61411 1.52769 1.44185 1.3566 1.272 1.18808 1.10488 1.02244 0.940812 0.860052 0.780212 0.701351 0.623534 0.54683 0.471311 0.397058 0.324154 0.252691 0.182766 0.114482 0.0479501 -0.0167132 -0.0793836 -0.13993 -0.198215 -0.254094 -0.307418 -0.358031 -0.405776 -0.45049 -0.492013 -0.530182 -0.564841 -0.595837 -0.623027 -0.64628 -0.665476 -0.680517 -0.691321 -0.697827 -0.7 -0.697827 -0.691321 -0.680517 -0.665476 -0.64628 -0.623027 -0.595837 -0.564841 -0.530182 -0.492013 -0.45049 -0.405776 -0.358031 -0.307418 -0.254094 -0.198215 -0.13993 -0.0793836 -0.0167132 0.0479501 0.114482 0.182766 0.252691 0.324154 0.397058 0.471311 0.54683 0.623534 0.701351 0.780212 0.860052 0.940812 1.02244 1.10488 1.18808 1.272 1.3566 1.44185 1.52769 1.61411 1.70106 1.78853 1.87647 1.96488 2.05371 2.14296 2.23259 2.32259 2.41295 2.50364 
2.4626 2.37122 2.28015 2.18941 2.09902 2.00899 1.91935 1.83011 1.74131 1.65296 1.56508 1.47772 1.3909 1.30465 1.219 1.13401 1.04969 0.966106 0.883298 0.801316 0.720215 0.640055 0.560899 0.482815 0.405877 0.330165 0.255764 0.182766 0.11127 0.0413813 -0.0267863 -0.0931116 -0.157466 -0.219712 -0.279706 -0.337295 -0.392319 -0.444614 -0.494007 -0.540325 -0.583391 -0.623027 -0.65906 -0.691321 -0.719649 -0.743897 -0.763932 -0.77964 -0.790928 -0.797728 -0.8 -0.797728 -0.790928 -0.77964 -0.763932 -0.743897 -0.719649 -0.691321 -0.65906 -0.623027 -0.583391 -0.540325 -0.494007 -0.444614 -0.392319 -0.337295 -0.279706 -0.219712 -0.157466 -0.0931116 -0.0267863 0.0413813 0.11127 0.182766 0.255764 0.330165 0.405877 0.482815 0.560899 0.640055 0.720215 0.801316 0.883298 0.966106 1.04969 1.13401 1.219 1.30465 1.3909 1.47772 1.56508 1.65296 1.74131 1.83011 1.91935 2.00899 2.09902 2.18941 2.28015 2.37122 2.4626 
2.4231 2.33104 2.23927 2.14782 2.05668 1.96588 1.87545 1.78539 1.69574 1.60652 1.51774 1.42945 1.34166 1.25441 1.16773 1.08167 0.996248 0.911521 0.827532 0.744329 0.661967 0.580503 0.5 0.420526 0.342155 0.264966 0.189044 0.114482 0.0413813 -0.0301515 -0.1 -0.16804 -0.234137 -0.298149 -0.359924 -0.419302 -0.476114 -0.530182 -0.581323 -0.629346 -0.674059 -0.715268 -0.752779 -0.786406 -0.815967 -0.841297 -0.862244 -0.87868 -0.890498 -0.89762 -0.9 -0.89762 -0.890498 -0.87868 -0.862244 -0.841297 -0.815967 -0.786406 -0.752779 -0.715268 -0.674059 -0.629346 -0.581323 -0.530182 -0.476114 -0.419302 -0.359924 -0.298149 -0.234137 -0.16804 -0.1 -0.0301515 0.0413813 0.114482 0.189044 0.264966 0.342155 0.420526 0.5 0.580503 0.661967 0.744329 0.827532 0.911521 0.996248 1.08167 1.16773 1.25441 1.34166 1.42945 1.51774 1.60652 1.69574 1.78539 1.87545 1.96588 2.05668 2.14782 2.23927 2.33104 2.4231 
2.38516 2.29245 2.2 2.10784 2.01597 1.92443 1.83322 1.74236 1.65188 1.5618 1.47214 1.38292 1.29418 1.20595 1.11825 1.03113 0.944617 0.858756 0.773592 0.689173 0.605551 0.522783 0.44093 0.36006 0.280244 0.201562 0.1241 0.0479501 -0.0267863 -0.1 -0.171573 -0.241377 -0.309275 -0.375119 -0.43875 -0.5 -0.558689 -0.614628 -0.667619 -0.717458 -0.763932 -0.806829 -0.845934 -0.881038 -0.911939 -0.938447 -0.960392 -0.977625 -0.990025 -0.997502 -1 -0.997502 -0.990025 -0.977625 -0.960392 -0.938447 -0.911939 -0.881038 -0.845934 -0.806829 -0.763932 -0.717458 -0.667619 -0.614628 -0.558689 -0.5 -0.43875 -0.375119 -0.309275 -0.241377 -0.171573 -0.1 -0.0267863 0.0479501 0.1241 0.201562 0.280244 0.36006 0.44093 0.522783 0.605551 0.689173 0.773592 0.858756 0.944617 1.03113 1.11825 1.20595 1.29418 1.38292 1.47214 1.5618 1.65188 1.74236 1.83322 1.92443 2.01597 2.10784 2.2 2.29245 2.38516 
2.34883 2.25547 2.16236 2.06952 1.97695 1.88467 1.7927 1.70106 1.60977 1.51885 1.42832 1.3382 1.24853 1.15933 1.07063 0.982462 0.894868 0.807887 0.721559 0.635932 0.551056 0.466987 0.383785 0.301515 0.220248 0.140064 0.0610456 -0.0167132 -0.0931116 -0.16804 -0.241377 -0.312994 -0.38275 -0.45049 -0.516052 -0.579256 -0.639915 -0.697827 -0.752779 -0.80455 -0.852909 -0.89762 -0.938447 -0.975154 -1.00751 -1.03531 -1.05835 -1.07646 -1.0895 -1.09737 -1.1 -1.09737 -1.0895 -1.07646 -1.05835 -1.03531 -1.00751 -0.975154 -0.938447 -0.89762 -0.852909 -0.80455 -0.752779 -0.697827 -0.639915 -0.579256 -0.516052 -0.45049 -0.38275 -0.312994 -0.241377 -0.16804 -0.0931116 -0.0167132 0.0610456 0.140064 0.220248 0.301515 0.383785 0.466987 0.551056 0.635932 0.721559 0.807887 0.894868 0.982462 1.07063 1.15933 1.24853 1.3382 1.42832 1.51885 1.60977 1.70106 1.7927 1.88467 1.97695 2.06952 2.16236 2.25547 2.34883 
2.31413 2.22015 2.1264 2.03289 1.93964 1.84665 1.75395 1.66154 1.56946 1.47772 1.38634 1.29535 1.20476 1.11461 1.02492 0.935734 0.847077 0.758989 0.671512 0.58469 0.498571 0.41321 0.328663 0.244996 0.162278 0.0805844 0 -0.0793836 -0.157466 -0.234137 -0.309275 -0.38275 -0.454416 -0.524116 -0.591681 -0.656925 -0.719649 -0.77964 -0.836669 -0.890498 -0.940874 -0.987539 -1.03023 -1.06868 -1.10263 -1.13185 -1.15609 -1.17517 -1.18892 -1.19722 -1.2 -1.19722 -1.18892 -1.17517 -1.15609 -1.13185 -1.10263 -1.06868 -1.03023 -0.987539 -0.940874 -0.890498 -0.836669 -0.77964 -0.719649 -0.656925 -0.591681 -0.524116 -0.454416 -0.38275 -0.309275 -0.234137 -0.157466 -0.0793836 0 0.0805844 0.162278 0.244996 0.328663 0.41321 0.498571 0.58469 0.671512 0.758989 0.847077 0.935734 1.02492 1.11461 1.20476 1.29535 1.38634 1.47772 1.56946 1.66154 1.75395 1.84665 1.93964 2.03289 2.1264 2.22015 2.31413 
2.2811 2.18652 2.09215 1.998 1.90408 1.81041 1.71699 1.62385 1.531 1.43847 1.34626 1.25441 1.16293 1.07185 0.981206 0.891015 0.801316 0.712142 0.623534 0.535534 0.448188 0.361547 0.275668 0.190611 0.106445 0.0232433 -0.0589118 -0.13993 -0.219712 -0.298149 -0.375119 -0.45049 -0.524116 -0.595837 -0.665476 -0.732843 -0.797728 -0.859907 -0.919135 -0.975154 -1.02769 -1.07646 -1.12117 -1.16152 -1.19722 -1.228 -1.25358 -1.27373 -1.28828 -1.29706 -1.3 -1.29706 -1.28828 -1.27373 -1.25358 -1.228 -1.19722 -1.16152 -1.12117 -1.07646 -1.02769 -0.975154 -0.919135 -0.859907 -0.797728 -0.732843 -0.665476 -0.595837 -0.524116 -0.45049 -0.375119 -0.298149 -0.219712 -0.13993 -0.0589118 0.0232433 0.106445 0.190611 0.275668 0.361547 0.448188 0.535534 0.623534 0.712142 0.801316 0.891015 0.981206 1.07185 1.16293 1.25441 1.34626 1.43847 1.531 1.62385 1.71699 1.81041 1.90408 1.998 2.09215 2.18652 2.2811 