# vtk DataFile Version 2.0
2D Surface
ASCII
DATASET RECTILINEAR_GRID
DIMENSIONS 101 101 1
X_COORDINATES 101 float
0
0.1
0.2
0.3
0.4
0.5
0.6
0.7
0.8
0.9
1
1.1
1.2
1.3
1.4
1.5
1.6
1.7
1.8
1.9
2
2.1
2.2
2.3
2.4
2.5
2.6
2.7
2.8
2.9
3
3.1
3.2
3.3
3.4
3.5
3.6
3.7
3.8
3.9
4
4.1
4.2
4.3
4.4
4.5
4.6
4.7
4.8
4.9
5
5.1
5.2
5.3
5.4
5.5
5.6
5.7
5.8
5.9
6
6.1
6.2
6.3
6.4
6.5
6.6
6.7
6.8
6.9
7
7.1
7.2
7.3
7.4
7.5
7.6
7.7
7.8
7.9
8
8.1
8.2
8.3
8.4
8.5
8.6
8.7
8.8
8.9
9
9.1
9.2
9.3
9.4
9.5
9.6
9.7
9.8
9.9
10
Y_COORDINATES 101 float
0
0.1
0.2
0.3
0.4
0.5
0.6
0.7
0.8
0.9
1
1.1
1.2
1.3
1.4
1.5
1.6
1.7
1.8
1.9
2
2.1
2.2
2.3
2.4
2.5
2.6
2.7
2.8
2.9
3
3.1
3.2
3.3
3.4
3.5
3.6
3.7
3.8
3.9
4
4.1
4.2
4.3
4.4
4.5
4.6
4.7
4.8
4.9
5
5.1
5.2
5.3
5.4
5.5
5.6
5.7
5.8
5.9
6
6.1
6.2
6.3
6.4
6.5
6.6
6.7
6.8
6.9
7
7.1
7.2
7.3
7.4
7.5
7.6
7.7
7.8
7.9
8
8.1
8.2
8.3
8.4
8.5
8.6
8.7
8.8
8.9
9
9.1
9.2
9.3
9.4
9.5
9.6
9.7
9.8
9.9
10
Z_COORDINATES 1 float
0
POINT_DATA 10201
SCALARS SDValues float
LOOKUP_TABLE default
2 2.001 2.004 2.00899 2.01597 2.02494 2.03587 2.04876 2.0636 2.08035 2.09902 2.11957 2.14198 2.16624 2.1923 2.22015 2.24976 2.2811 2.31413 2.34883 2.38516 2.4231 2.4626 2.50364 2.54617 2.59017 2.6356 2.68243 2.73062 2.78014 2.83095 2.88303 2.93633 2.99083 3.04649 3.10328 3.16117 3.22013 3.28013 3.34114 3.40312 3.46607 3.52993 3.59469 3.66033 3.72681 3.79412 3.86222 3.93109 4.00071 4.07107 4.14213 4.21388 4.28629 4.35935 4.43303 4.50733 4.58222 4.65768 4.73369 4.81025 4.88733 4.96492 5.04301 5.12158 5.20061 5.2801 5.36002 5.44038 5.52115 5.60233 5.68389 5.76584 5.84816 5.93085 6.01388 6.09725 6.18096 6.26499 6.34933 6.43398 6.51893 6.60417 6.68969 6.77548 6.86154 6.94786 7.03444 7.12126 7.20833 7.29563 7.38316 7.47091 7.55888 7.64707 7.73546 7.82405 7.91284 8.00182 8.09099 8.18034 
1.9 1.90102 1.90408 1.90918 1.9163 1.92544 1.9366 1.94975 1.96488 1.98197 2.001 2.02195 2.0448 2.06952 2.09608 2.12445 2.15461 2.18652 2.22015 2.25547 2.29245 2.33104 2.37122 2.41295 2.45619 2.50091 2.54707 2.59464 2.64358 2.69386 2.74543 2.79828 2.85235 2.90762 2.96406 3.02163 3.0803 3.14003 3.20081 3.26259 3.32535 3.38905 3.45368 3.5192 3.58559 3.65282 3.72086 3.7897 3.8593 3.92965 4.00071 4.07248 4.14493 4.21803 4.29178 4.36614 4.4411 4.51665 4.59276 4.66942 4.74661 4.82432 4.90253 4.98123 5.0604 5.14002 5.2201 5.3006 5.38153 5.46286 5.54459 5.6267 5.70919 5.79204 5.87525 5.95879 6.04268 6.12688 6.21141 6.29624 6.38136 6.46678 6.55249 6.63846 6.72471 6.81122 6.89798 6.98499 7.07224 7.15972 7.24744 7.33538 7.42353 7.5119 7.60047 7.68925 7.77822 7.86738 7.95673 8.04627 8.13598 
1.8 1.80104 1.80416 1.80937 1.81664 1.82597 1.83735 1.85077 1.86621 1.88365 1.90306 1.92443 1.94773 1.97293 2 2.02892 2.05964 2.09215 2.1264 2.16236 2.2 2.23927 2.28015 2.32259 2.36656 2.41202 2.45894 2.50727 2.55698 2.60803 2.66039 2.71402 2.76888 2.82495 2.88218 2.94054 3 3.06053 3.12209 3.18466 3.2482 3.31269 3.37809 3.44438 3.51153 3.57951 3.64831 3.71789 3.78823 3.8593 3.93109 4.00357 4.07672 4.15052 4.22496 4.3 4.37564 4.45185 4.52861 4.60592 4.68375 4.76209 4.84092 4.92023 5 5.08022 5.16088 5.24197 5.32346 5.40536 5.48764 5.5703 5.65332 5.7367 5.82043 5.90449 5.98888 6.07359 6.1586 6.24392 6.32952 6.41541 6.50158 6.58801 6.67471 6.76166 6.84886 6.9363 7.02397 7.11187 7.2 7.28834 7.3769 7.46566 7.55462 7.64378 7.73313 7.82266 7.91238 8.00227 8.09234 
1.7 1.70106 1.70425 1.70956 1.71699 1.72652 1.73814 1.75184 1.7676 1.78539 1.80521 1.82701 1.85077 1.87647 1.90408 1.93356 1.96488 1.998 2.03289 2.06952 2.10784 2.14782 2.18941 2.23259 2.27731 2.32353 2.37122 2.42033 2.47083 2.52268 2.57584 2.63028 2.68595 2.74282 2.80086 2.86003 2.9203 2.98164 3.04401 3.10737 3.17171 3.23699 3.30317 3.37024 3.43817 3.50692 3.57647 3.6468 3.71789 3.7897 3.86222 3.93542 4.00928 4.08378 4.15891 4.23464 4.31095 4.38783 4.46525 4.54321 4.62168 4.70065 4.7801 4.86003 4.9404 5.02122 5.10247 5.18413 5.2662 5.34865 5.43149 5.51469 5.59826 5.68217 5.76641 5.85099 5.93588 6.02109 6.10659 6.19239 6.27847 6.36483 6.45145 6.53834 6.62549 6.71288 6.80051 6.88838 6.97647 7.06479 7.15332 7.24207 7.33102 7.42017 7.50952 7.59906 7.68878 7.77868 7.86876 7.95901 8.04943 
1.6 1.60109 1.60435 1.60977 1.61736 1.62709 1.63897 1.65296 1.66905 1.68722 1.70744 1.72969 1.75395 1.78017 1.80833 1.83839 1.87032 1.90408 1.93964 1.97695 2.01597 2.05668 2.09902 2.14296 2.18845 2.23546 2.28394 2.33385 2.38516 2.43783 2.49181 2.54707 2.60357 2.66127 2.72014 2.78014 2.84123 2.90339 2.96657 3.03075 3.0959 3.16198 3.22896 3.29682 3.36553 3.43506 3.50538 3.57647 3.64831 3.72086 3.79412 3.86804 3.94262 4.01783 4.09366 4.17008 4.24707 4.32462 4.4027 4.48131 4.56042 4.64003 4.7201 4.80064 4.88162 4.96304 5.04487 5.12712 5.20975 5.29277 5.37616 5.45991 5.544 5.62844 5.71321 5.7983 5.88369 5.96939 6.05539 6.14166 6.22822 6.31504 6.40213 6.48947 6.57706 6.66488 6.75295 6.84124 6.92975 7.01848 7.10742 7.19657 7.28591 7.37545 7.46518 7.55509 7.64519 7.73546 7.82589 7.9165 8.00727 
1.5 1.50111 1.50444 1.50999 1.51774 1.52769 1.53982 1.55412 1.57056 1.58912 1.60977 1.63249 1.65725 1.68402 1.71275 1.74342 1.77598 1.81041 1.84665 1.88467 1.92443 1.96588 2.00899 2.05371 2.1 2.14782 2.19711 2.24786 2.3 2.3535 2.40833 2.46443 2.52178 2.58032 2.64004 2.70088 2.76281 2.8258 2.88982 2.95483 3.0208 3.08769 3.15549 3.22415 3.29365 3.36396 3.43506 3.50692 3.57951 3.65282 3.72681 3.80147 3.87677 3.9527 4.02922 4.10634 4.18401 4.26223 4.34098 4.42024 4.5 4.58024 4.66094 4.74209 4.82368 4.90569 4.98812 5.07094 5.15414 5.23772 5.32166 5.40595 5.49058 5.57555 5.66083 5.74643 5.83233 5.91852 6.005 6.09175 6.17878 6.26607 6.35361 6.4414 6.52943 6.61769 6.70618 6.7949 6.88383 6.97296 7.06231 7.15185 7.24158 7.33151 7.42161 7.5119 7.60236 7.69299 7.78378 7.87474 7.96586 
1.4 1.40114 1.40454 1.41022 1.41814 1.42832 1.44072 1.45533 1.47214 1.4911 1.51221 1.53542 1.5607 1.58803 1.61736 1.64866 1.68188 1.71699 1.75395 1.7927 1.83322 1.87545 1.91935 1.96488 2.01199 2.06063 2.11077 2.16236 2.21536 2.26972 2.32541 2.38238 2.44059 2.5 2.56058 2.62228 2.68507 2.74891 2.81378 2.87963 2.94643 3.01415 3.08276 3.15224 3.22254 3.29365 3.36553 3.43817 3.51153 3.58559 3.66033 3.73573 3.81175 3.8884 3.96563 4.04344 4.1218 4.20069 4.28011 4.36003 4.44043 4.5213 4.60263 4.6844 4.7666 4.8492 4.93221 5.01561 5.09938 5.18352 5.26801 5.35284 5.43801 5.5235 5.6093 5.6954 5.7818 5.86848 5.95545 6.04268 6.13017 6.21792 6.30591 6.39415 6.48262 6.57131 6.66023 6.74936 6.8387 6.92824 7.01798 7.10792 7.19804 7.28834 7.37882 7.46948 7.5603 7.65129 7.74244 7.83374 7.9252 
1.3 1.30116 1.30465 1.31045 1.31856 1.32897 1.34166 1.3566 1.37379 1.39318 1.41475 1.43847 1.4643 1.49222 1.52217 1.55412 1.58803 1.62385 1.66154 1.70106 1.74236 1.78539 1.83011 1.87647 1.92443 1.97393 2.02494 2.0774 2.13128 2.18652 2.24309 2.30094 2.36004 2.42033 2.48179 2.54437 2.60803 2.67274 2.73847 2.80517 2.87282 2.94138 3.01082 3.08112 3.15224 3.22415 3.29682 3.37024 3.44438 3.5192 3.59469 3.67083 3.74759 3.82495 3.9029 3.9814 4.06045 4.14003 4.22011 4.30068 4.38173 4.46324 4.5452 4.62758 4.71038 4.79359 4.87718 4.96116 5.0455 5.13019 5.21523 5.3006 5.3863 5.47231 5.55862 5.64523 5.73212 5.8193 5.90674 5.99444 6.0824 6.17061 6.25905 6.34773 6.43663 6.52575 6.61509 6.70464 6.79439 6.88433 6.97447 7.06479 7.15529 7.24597 7.33683 7.42785 7.51903 7.61037 7.70187 7.79352 7.88531 
1.2 1.20119 1.20476 1.2107 1.219 1.22966 1.24264 1.25793 1.27551 1.29535 1.31741 1.34166 1.36807 1.39659 1.42719 1.45982 1.49444 1.531 1.56946 1.60977 1.65188 1.69574 1.74131 1.78853 1.83735 1.88774 1.93964 1.993 2.04777 2.10392 2.1614 2.22015 2.28015 2.34135 2.4037 2.46717 2.53173 2.59732 2.66392 2.73149 2.8 2.86941 2.9397 3.01082 3.08276 3.15549 3.22896 3.30317 3.37809 3.45368 3.52993 3.60681 3.68431 3.7624 3.84105 3.92026 4 4.08025 4.16101 4.24224 4.32393 4.40608 4.48866 4.57166 4.65506 4.73886 4.82304 4.90759 4.9925 5.07775 5.16333 5.24924 5.33547 5.422 5.50882 5.59593 5.68332 5.77097 5.85889 5.94707 6.03549 6.12414 6.21303 6.30215 6.39149 6.48103 6.57079 6.66075 6.7509 6.84124 6.93177 7.02247 7.11336 7.20441 7.29563 7.38701 7.47855 7.57024 7.66208 7.75407 7.8462 
1.1 1.10122 1.10488 1.11096 1.11947 1.13038 1.14367 1.15933 1.17732 1.19762 1.22019 1.245 1.272 1.30116 1.33244 1.36578 1.40114 1.43847 1.47772 1.51885 1.5618 1.60652 1.65296 1.70106 1.75079 1.80208 1.85489 1.90918 1.96488 2.02195 2.08035 2.14004 2.20096 2.26308 2.32635 2.39073 2.45619 2.52268 2.59017 2.65862 2.728 2.79828 2.86941 2.94138 3.01415 3.08769 3.16198 3.23699 3.31269 3.38905 3.46607 3.5437 3.62193 3.70075 3.78012 3.86003 3.94046 4.0214 4.10282 4.18471 4.26705 4.34983 4.43303 4.51665 4.60066 4.68505 4.76981 4.85493 4.9404 5.02621 5.11234 5.19878 5.28553 5.37257 5.45991 5.54751 5.63539 5.72353 5.81192 5.90056 5.98944 6.07855 6.16788 6.25743 6.34719 6.43716 6.52733 6.61769 6.70824 6.79898 6.88989 6.98098 7.07224 7.16366 7.25524 7.34698 7.43887 7.53091 7.62309 7.71541 7.80787 
1 1.00125 1.005 1.01123 1.01995 1.03113 1.04475 1.06079 1.07922 1.1 1.12311 1.14849 1.17612 1.20595 1.23792 1.272 1.30813 1.34626 1.38634 1.42832 1.47214 1.51774 1.56508 1.61411 1.66476 1.71699 1.77074 1.82597 1.88262 1.94065 2 2.06063 2.1225 2.18556 2.24976 2.31507 2.38145 2.44885 2.51725 2.58659 2.65685 2.728 2.8 2.87282 2.94643 3.0208 3.0959 3.17171 3.2482 3.32535 3.40312 3.48151 3.56049 3.64003 3.72012 3.80074 3.88186 3.96348 4.04557 4.12811 4.2111 4.29452 4.37835 4.46257 4.54718 4.63217 4.71751 4.8032 4.88923 4.97559 5.06226 5.14923 5.2365 5.32406 5.4119 5.5 5.58836 5.67698 5.76584 5.85494 5.94427 6.03383 6.1236 6.21358 6.30376 6.39415 6.48472 6.57549 6.66644 6.75756 6.84886 6.94032 7.03195 7.12373 7.21567 7.30776 7.4 7.49238 7.58489 7.67755 7.77033 
0.9 0.901282 0.905125 0.911521 0.920459 0.931921 0.945884 0.962323 0.981206 1.0025 1.02616 1.05216 1.08044 1.11096 1.14367 1.17852 1.21545 1.25441 1.29535 1.3382 1.38292 1.42945 1.47772 1.52769 1.5793 1.63249 1.68722 1.74342 1.80104 1.86004 1.92037 1.98197 2.0448 2.10882 2.17397 2.24023 2.30754 2.37587 2.44518 2.51543 2.58659 2.65862 2.73149 2.80517 2.87963 2.95483 3.03075 3.10737 3.18466 3.26259 3.34114 3.42028 3.5 3.58027 3.66108 3.7424 3.82422 3.90652 3.98928 4.07248 4.15612 4.24017 4.32462 4.40945 4.49466 4.58024 4.66616 4.75242 4.83901 4.92591 5.01311 5.10062 5.18841 5.27647 5.36481 5.4534 5.54225 5.63134 5.72067 5.81022 5.9 5.98999 6.0802 6.17061 6.26121 6.35201 6.44299 6.53415 6.62549 6.717 6.80867 6.90051 6.9925 7.08464 7.17693 7.26937 7.36195 7.45466 7.54751 7.64049 7.73359 
0.8 0.801316 0.80526 0.811824 0.820995 0.832754 0.847077 0.863936 0.883298 0.905125 0.929377 0.956008 0.984972 1.01622 1.04969 1.08534 1.12311 1.16293 1.20476 1.24853 1.29418 1.34166 1.3909 1.44185 1.49444 1.54863 1.60435 1.66154 1.72017 1.78017 1.84149 1.90408 1.9679 2.03289 2.09902 2.16624 2.2345 2.30377 2.37401 2.44518 2.51725 2.59017 2.66392 2.73847 2.81378 2.88982 2.96657 3.04401 3.12209 3.20081 3.28013 3.36003 3.4405 3.5215 3.60303 3.68506 3.76757 3.85055 3.93397 4.01783 4.10211 4.18679 4.27186 4.35731 4.44312 4.52928 4.61577 4.7026 4.78974 4.87718 4.96492 5.05295 5.14125 5.22982 5.31865 5.40773 5.49706 5.58662 5.6764 5.76641 5.85664 5.94707 6.0377 6.12853 6.21954 6.31075 6.40213 6.49368 6.58541 6.67729 6.76934 6.86154 6.95389 7.04639 7.13903 7.23181 7.32473 7.41777 7.51095 7.60424 7.69766 
0.7 0.701351 0.705401 0.712142 0.721559 0.733631 0.748333 0.765634 0.785499 0.807887 0.832754 0.860052 0.88973 0.921734 0.956008 0.992493 1.03113 1.07185 1.11461 1.15933 1.20595 1.25441 1.30465 1.3566 1.41022 1.46542 1.52217 1.58039 1.64004 1.70106 1.7634 1.82701 1.89183 1.95782 2.02494 2.09313 2.16236 2.23259 2.30377 2.37587 2.44885 2.52268 2.59732 2.67274 2.74891 2.8258 2.90339 2.98164 3.06053 3.14003 3.22013 3.30079 3.38201 3.46375 3.54599 3.62873 3.71193 3.79559 3.87968 3.96419 4.04911 4.13442 4.22011 4.30616 4.39256 4.4793 4.56637 4.65376 4.74145 4.82943 4.9177 5.00625 5.09506 5.18413 5.27345 5.36301 5.45281 5.54283 5.63308 5.72353 5.81419 5.90505 5.99611 6.08735 6.17878 6.27038 6.36216 6.4541 6.5462 6.63846 6.73088 6.82344 6.91615 7.009 7.10198 7.1951 7.28834 7.38171 7.47521 7.56882 7.66255 
0.6 0.601389 0.605551 0.612478 0.622154 0.634556 0.649658 0.667424 0.687818 0.710795 0.736308 0.764306 0.794733 0.827532 0.862642 0.9 0.939543 0.981206 1.02492 1.07063 1.11825 1.16773 1.219 1.272 1.32666 1.38292 1.44072 1.5 1.5607 1.62277 1.68615 1.75079 1.81664 1.88365 1.95177 2.02096 2.09117 2.16236 2.2345 2.30754 2.38145 2.45619 2.53173 2.60803 2.68507 2.76281 2.84123 2.9203 3 3.0803 3.16117 3.2426 3.32456 3.40703 3.48999 3.57343 3.65733 3.74166 3.82642 3.91158 3.99714 4.08308 4.16938 4.25603 4.34302 4.43034 4.51798 4.60592 4.69415 4.78267 4.87147 4.96053 5.04984 5.13941 5.22922 5.31925 5.40952 5.5 5.59069 5.68159 5.77268 5.86397 5.95545 6.0471 6.13893 6.23093 6.32309 6.41541 6.50789 6.60052 6.6933 6.78621 6.87927 6.97246 7.06578 7.15923 7.2528 7.3465 7.44031 7.53423 7.62826 
0.5 0.501428 0.50571 0.512834 0.522783 0.535534 0.551056 0.569314 0.590265 0.613862 0.640055 0.668787 0.7 0.733631 0.769615 0.807887 0.848376 0.891015 0.935734 0.982462 1.03113 1.08167 1.13401 1.18808 1.24382 1.30116 1.36005 1.42041 1.48219 1.54533 1.60977 1.67547 1.74236 1.81041 1.87955 1.94975 2.02096 2.09313 2.16624 2.24023 2.31507 2.39073 2.46717 2.54437 2.62228 2.70088 2.78014 2.86003 2.94054 3.02163 3.10328 3.18547 3.26817 3.35138 3.43506 3.5192 3.60379 3.6888 3.77422 3.86003 3.94622 4.03278 4.11969 4.20694 4.29452 4.38241 4.47061 4.5591 4.64788 4.73692 4.82624 4.91581 5.00562 5.09568 5.18596 5.27647 5.3672 5.45813 5.54927 5.6406 5.73212 5.82383 5.91572 6.00777 6.1 6.19239 6.28493 6.37763 6.47048 6.56347 6.6566 6.74987 6.84327 6.9368 7.03045 7.12423 7.21812 7.31213 7.40625 7.50048 7.59481 
0.4 0.40147 0.405877 0.41321 0.423449 0.436568 0.452535 0.471311 0.49285 0.517101 0.544009 0.573514 0.605551 0.640055 0.676955 0.716181 0.757659 0.801316 0.847077 0.894868 0.944617 0.996248 1.04969 1.10488 1.16173 1.22019 1.28019 1.34166 1.40454 1.46878 1.53431 1.60109 1.66905 1.73814 1.80833 1.87955 1.95177 2.02494 2.09902 2.17397 2.24976 2.32635 2.4037 2.48179 2.56058 2.64004 2.72014 2.80086 2.88218 2.96406 3.04649 3.12944 3.21289 3.29682 3.38122 3.46607 3.55134 3.63702 3.72309 3.80955 3.89638 3.98355 4.07107 4.15891 4.24707 4.33553 4.42428 4.51332 4.60263 4.6922 4.78203 4.8721 4.96241 5.05295 5.14371 5.23468 5.32586 5.41724 5.50882 5.60058 5.69253 5.78465 5.87694 5.96939 6.06201 6.15478 6.2477 6.34077 6.43398 6.52733 6.62081 6.71442 6.80816 6.90202 6.996 7.09009 7.1843 7.27862 7.37304 7.46757 7.5622 
0.3 0.301515 0.306055 0.313608 0.324154 0.337664 0.354102 0.373426 0.395585 0.420526 0.448188 0.478505 0.51141 0.54683 0.58469 0.624914 0.667424 0.712142 0.758989 0.807887 0.858756 0.911521 0.966106 1.02244 1.08044 1.14005 1.20119 1.2638 1.32782 1.39318 1.45982 1.52769 1.59674 1.6669 1.73814 1.81041 1.88365 1.95782 2.03289 2.10882 2.18556 2.26308 2.34135 2.42033 2.5 2.58032 2.66127 2.74282 2.82495 2.90762 2.99083 3.07454 3.15873 3.2434 3.32851 3.41405 3.5 3.58635 3.67308 3.76018 3.84763 3.93542 4.02353 4.11196 4.20069 4.28972 4.37902 4.4686 4.55844 4.64853 4.73886 4.82943 4.92023 5.01124 5.10247 5.1939 5.28553 5.37735 5.46936 5.56154 5.6539 5.74643 5.83912 5.93197 6.02497 6.11811 6.21141 6.30484 6.3984 6.4921 6.58593 6.67988 6.77394 6.86813 6.96243 7.05684 7.15135 7.24597 7.3407 7.43552 7.53043 
0.2 0.201562 0.206244 0.214032 0.224903 0.238827 0.255764 0.275668 0.298485 0.324154 0.352611 0.383785 0.417601 0.453983 0.49285 0.534119 0.577709 0.623534 0.671512 0.721559 0.773592 0.827532 0.883298 0.940812 1 1.06079 1.12311 1.18688 1.25206 1.31856 1.38634 1.45533 1.52548 1.59674 1.66905 1.74236 1.81664 1.89183 1.9679 2.0448 2.1225 2.20096 2.28015 2.36004 2.44059 2.52178 2.60357 2.68595 2.76888 2.85235 2.93633 3.0208 3.10574 3.19112 3.27694 3.36318 3.44981 3.53682 3.6242 3.71193 3.8 3.8884 3.97711 4.06612 4.15542 4.245 4.33485 4.42496 4.51532 4.60592 4.69675 4.78781 4.87909 4.97057 5.06226 5.15414 5.24621 5.33847 5.4309 5.5235 5.61626 5.70919 5.80227 5.8955 5.98888 6.0824 6.17606 6.26984 6.36376 6.4578 6.55196 6.64624 6.74064 6.83514 6.92975 7.02447 7.11929 7.21421 7.30922 7.40433 7.49952 
0.1 0.101612 0.106445 0.114482 0.1257 0.140064 0.157531 0.17805 0.201562 0.228002 0.257299 0.289377 0.324154 0.361547 0.40147 0.443835 0.488553 0.535534 0.58469 0.635932 0.689173 0.744329 0.801316 0.860052 0.920459 0.982462 1.04599 1.11096 1.17732 1.245 1.31393 1.38406 1.45533 1.52769 1.60109 1.67547 1.75079 1.82701 1.90408 1.98197 2.06063 2.14004 2.22015 2.30094 2.38238 2.46443 2.54707 2.63028 2.71402 2.79828 2.88303 2.96825 3.05392 3.14003 3.22656 3.31348 3.40078 3.48845 3.57647 3.66483 3.75352 3.84251 3.93181 4.0214 4.11126 4.20139 4.29178 4.38241 4.47329 4.56439 4.65572 4.74726 4.83901 4.93095 5.02309 5.11542 5.20792 5.3006 5.39345 5.48646 5.57963 5.67295 5.76641 5.86002 5.95377 6.04765 6.14166 6.2358 6.33006 6.42444 6.51893 6.61353 6.70824 6.80306 6.89798 6.993 7.08811 7.18332 7.27862 7.37401 7.46948 
0 0.0016662 0.00665928 0.0149627 0.0265492 0.0413813 0.0594117 0.0805844 0.104835 0.132092 0.162278 0.195309 0.231099 0.269557 0.310589 0.354102 0.4 0.448188 0.498571 0.551056 0.605551 0.661967 0.720215 0.780212 0.841875 0.905125 0.969887 1.03609 1.10366 1.17253 1.24264 1.31393 1.38634 1.45982 1.53431 1.60977 1.68615 1.7634 1.84149 1.92037 2 2.08035 2.1614 2.24309 2.32541 2.40833 2.49181 2.57584 2.66039 2.74543 2.83095 2.91692 3.00333 3.09016 3.17738 3.26498 3.35295 3.44127 3.52993 3.61891 3.7082 3.79779 3.88767 3.97782 4.06824 4.15891 4.24983 4.34098 4.43236 4.52396 4.61577 4.70779 4.8 4.8924 4.98499 5.07775 5.17068 5.26378 5.35703 5.45044 5.544 5.63771 5.73155 5.82553 5.91964 6.01388 6.10824 6.20272 6.29731 6.39202 6.48683 6.58175 6.67678 6.7719 6.86712 6.96243 7.05783 7.15332 7.2489 7.34456 7.44031 
-0.1 -0.0982764 -0.0931116 -0.0845241 -0.0725438 -0.0572122 -0.0385814 -0.0167132 0.00832179 0.0364453 0.0675723 0.101612 0.138471 0.17805 0.220248 0.264966 0.312099 0.361547 0.41321 0.466987 0.522783 0.580503 0.640055 0.701351 0.764306 0.828838 0.894868 0.962323 1.03113 1.10122 1.17253 1.245 1.31856 1.39318 1.46878 1.54533 1.62277 1.70106 1.78017 1.86004 1.94065 2.02195 2.10392 2.18652 2.26972 2.3535 2.43783 2.52268 2.60803 2.69386 2.78014 2.86686 2.95399 3.04152 3.12944 3.21772 3.30635 3.39531 3.4846 3.57419 3.66408 3.75426 3.84471 3.93542 4.02638 4.11758 4.20902 4.30068 4.39256 4.48465 4.57694 4.66942 4.76209 4.85493 4.94796 5.04114 5.13449 5.228 5.32166 5.41546 5.50941 5.60349 5.6977 5.79204 5.88651 5.98109 6.07579 6.17061 6.26553 6.36056 6.45569 6.55092 6.64624 6.74166 6.83717 6.93277 7.02846 7.12423 7.22008 7.31601 7.41201 
-0.2 -0.198215 -0.192866 -0.183974 -0.171573 -0.155707 -0.136436 -0.113826 -0.087956 -0.0589118 -0.0267863 0.00832179 0.0463092 0.0870698 0.130495 0.176476 0.224903 0.275668 0.328663 0.383785 0.44093 0.5 0.560899 0.623534 0.687818 0.753665 0.820995 0.88973 0.959798 1.03113 1.10366 1.17732 1.25206 1.32782 1.40454 1.48219 1.5607 1.64004 1.72017 1.80104 1.88262 1.96488 2.04777 2.13128 2.21536 2.3 2.38516 2.47083 2.55698 2.64358 2.73062 2.81808 2.90593 2.99416 3.08276 3.17171 3.26099 3.35059 3.4405 3.5307 3.62118 3.71193 3.80294 3.8942 3.9857 4.07743 4.16938 4.26154 4.35391 4.44648 4.53923 4.63217 4.72528 4.81857 4.91202 5.00562 5.09938 5.19329 5.28734 5.38153 5.47585 5.5703 5.66487 5.75957 5.85438 5.9493 6.04434 6.13947 6.23472 6.33006 6.4255 6.52103 6.61665 6.71236 6.80816 6.90404 7 7.09604 7.19215 7.28834 7.3846 
-0.3 -0.298149 -0.292603 -0.283384 -0.270531 -0.254094 -0.234137 -0.210735 -0.183974 -0.15395 -0.120764 -0.0845241 -0.0453427 -0.00333519 0.0413813 0.088689 0.138471 0.190611 0.244996 0.301515 0.36006 0.420526 0.482815 0.54683 0.612478 0.679674 0.748333 0.818377 0.88973 0.962323 1.03609 1.11096 1.18688 1.2638 1.34166 1.42041 1.5 1.58039 1.66154 1.74342 1.82597 1.90918 1.993 2.0774 2.16236 2.24786 2.33385 2.42033 2.50727 2.59464 2.68243 2.77062 2.85918 2.94811 3.03738 3.12699 3.21691 3.30714 3.39766 3.48845 3.57951 3.67083 3.7624 3.8542 3.94622 4.03847 4.13092 4.22357 4.31642 4.40945 4.50267 4.59605 4.6896 4.78332 4.87718 4.9712 5.06536 5.15966 5.25409 5.34865 5.44334 5.53815 5.63308 5.72812 5.82326 5.91852 6.01388 6.10934 6.20489 6.30054 6.39628 6.4921 6.58801 6.68401 6.78008 6.87623 6.97246 7.06876 7.16514 7.26158 7.35809 
-0.4 -0.398078 -0.392319 -0.38275 -0.369411 -0.35236 -0.331667 -0.307418 -0.279706 -0.248637 -0.214322 -0.176881 -0.136436 -0.0931116 -0.0470354 0.0016662 0.0528675 0.106445 0.162278 0.220248 0.280244 0.342155 0.405877 0.471311 0.538361 0.606938 0.676955 0.748333 0.820995 0.894868 0.969887 1.04599 1.12311 1.20119 1.28019 1.36005 1.44072 1.52217 1.60435 1.68722 1.77074 1.85489 1.93964 2.02494 2.11077 2.19711 2.28394 2.37122 2.45894 2.54707 2.6356 2.72451 2.81378 2.90339 2.99333 3.08358 3.17414 3.26498 3.3561 3.44748 3.53911 3.63099 3.72309 3.81542 3.90797 4.00071 4.09366 4.18679 4.28011 4.3736 4.46726 4.56108 4.65506 4.74919 4.84347 4.93788 5.03243 5.12712 5.22192 5.31685 5.4119 5.50706 5.60233 5.6977 5.79318 5.88876 5.98443 6.0802 6.17606 6.272 6.36803 6.46414 6.56033 6.6566 6.75295 6.84937 6.94585 7.04241 7.13903 7.23572 7.33247 
-0.5 -0.498001 -0.492013 -0.482064 -0.468202 -0.45049 -0.429008 -0.403849 -0.375119 -0.342934 -0.307418 -0.2687 -0.226915 -0.182199 -0.13469 -0.0845241 -0.0318356 0.0232433 0.0805844 0.140064 0.201562 0.264966 0.330165 0.397058 0.465545 0.535534 0.606938 0.679674 0.753665 0.828838 0.905125 0.982462 1.06079 1.14005 1.22019 1.30116 1.38292 1.46542 1.54863 1.63249 1.71699 1.80208 1.88774 1.97393 2.06063 2.14782 2.23546 2.32353 2.41202 2.50091 2.59017 2.67979 2.76975 2.86003 2.95063 3.04152 3.1327 3.22415 3.31585 3.40781 3.5 3.59242 3.68506 3.77791 3.87095 3.96419 4.05762 4.15122 4.245 4.33894 4.43303 4.52728 4.62168 4.71622 4.81089 4.90569 5.00062 5.09568 5.19085 5.28613 5.38153 5.47703 5.57263 5.66833 5.76413 5.86002 5.956 6.05207 6.14822 6.24446 6.34077 6.43716 6.53362 6.63016 6.72677 6.82344 6.92018 7.01699 7.11385 7.21078 7.30776 
-0.6 -0.597918 -0.591681 -0.581323 -0.566895 -0.54847 -0.526137 -0.5 -0.470178 -0.436799 -0.4 -0.359924 -0.316718 -0.270531 -0.221511 -0.169806 -0.115559 -0.0589118 0 0.0610456 0.1241 0.189044 0.255764 0.324154 0.394113 0.465545 0.538361 0.612478 0.687818 0.764306 0.841875 0.920459 1 1.08044 1.16173 1.24382 1.32666 1.41022 1.49444 1.5793 1.66476 1.75079 1.83735 1.92443 2.01199 2.1 2.18845 2.27731 2.36656 2.45619 2.54617 2.63649 2.72713 2.81808 2.90931 3.00083 3.09262 3.18466 3.27694 3.36946 3.4622 3.55515 3.64831 3.74166 3.8352 3.92892 4.02282 4.11688 4.2111 4.30548 4.4 4.49466 4.58947 4.6844 4.77946 4.87464 4.96994 5.06536 5.16088 5.25651 5.35225 5.44808 5.544 5.64002 5.73613 5.83233 5.92861 6.02497 6.1214 6.21792 6.3145 6.41116 6.50789 6.60469 6.70155 6.79847 6.89545 6.9925 7.0896 7.18676 7.28397 
-0.7 -0.697827 -0.691321 -0.680517 -0.665476 -0.64628 -0.623027 -0.595837 -0.564841 -0.530182 -0.492013 -0.45049 -0.405776 -0.358031 -0.307418 -0.254094 -0.198215 -0.13993 -0.0793836 -0.0167132 0.0479501 0.114482 0.182766 0.252691 0.324154 0.397058 0.471311 0.54683 0.623534 0.701351 0.780212 0.860052 0.940812 1.02244 1.10488 1.18808 1.272 1.3566 1.44185 1.52769 1.61411 1.70106 1.78853 1.87647 1.96488 2.05371 2.14296 2.23259 2.32259 2.41295 2.50364 2.59464 2.68595 2.77754 2.86941 2.96154 3.05392 3.14654 3.23939 3.33246 3.42573 3.5192 3.61287 3.70671 3.80074 3.89493 3.98928 4.08378 4.17844 4.27324 4.36817 4.46324 4.55844 4.65376 4.74919 4.84474 4.9404 5.03617 5.13204 5.228 5.32406 5.42021 5.51645 5.61278 5.70919 5.80568 5.90225 5.99889 6.0956 6.19239 6.28924 6.38616 6.48314 6.58019 6.67729 6.77446 6.87168 6.96895 7.06628 7.16366 7.26109 
-0.8 -0.797728 -0.790928 -0.77964 -0.763932 -0.743897 -0.719649 -0.691321 -0.65906 -0.623027 -0.583391 -0.540325 -0.494007 -0.444614 -0.392319 -0.337295 -0.279706 -0.219712 -0.157466 -0.0931116 -0.0267863 0.0413813 0.11127 0.182766 0.255764 0.330165 0.405877 0.482815 0.560899 0.640055 0.720215 0.801316 0.883298 0.966106 1.04969 1.13401 1.219 1.30465 1.3909 1.47772 1.56508 1.65296 1.74131 1.83011 1.91935 2.00899 2.09902 2.18941 2.28015 2.37122 2.4626 2.55428 2.64624 2.73847 2.83095 2.92368 3.01664 3.10983 3.20322 3.29682 3.39062 3.4846 3.57875 3.67308 3.76757 3.86222 3.95701 4.05195 4.14703 4.24224 4.33757 4.43303 4.52861 4.6243 4.7201 4.81601 4.91202 5.00812 5.10432 5.20061 5.29699 5.39345 5.48999 5.58662 5.68332 5.78009 5.87694 5.97385 6.07083 6.16788 6.26499 6.36216 6.45939 6.55667 6.65401 6.75141 6.84886 6.94636 7.0439 7.1415 7.23914 
-0.9 -0.89762 -0.890498 -0.87868 -0.862244 -0.841297 -0.815967 -0.786406 -0.752779 -0.715268 -0.674059 -0.629346 -0.581323 -0.530182 -0.476114 -0.419302 -0.359924 -0.298149 -0.234137 -0.16804 -0.1 -0.0301515 0.0413813 0.114482 0.189044 0.264966 0.342155 0.420526 0.5 0.580503 0.661967 0.744329 0.827532 0.911521 0.996248 1.08167 1.16773 1.25441 1.34166 1.42945 1.51774 1.60652 1.69574 1.78539 1.87545 1.96588 2.05668 2.14782 2.23927 2.33104 2.4231 2.51543 2.60803 2.70088 2.79396 2.88727 2.9808 3.07454 3.16847 3.26259 3.35689 3.45136 3.54599 3.64078 3.73573 3.83081 3.92604 4.0214 4.11688 4.21249 4.30821 4.40405 4.5 4.59605 4.6922 4.78845 4.8848 4.98123 5.07775 5.17435 5.27103 5.3678 5.46463 5.56154 5.65852 5.75557 5.85268 5.94986 6.0471 6.1444 6.24175 6.33916 6.43663 6.53415 6.63172 6.72934 6.827 6.92472 7.02247 7.12028 7.21812 
-1 -0.997502 -0.990025 -0.977625 -0.960392 -0.938447 -0.911939 -0.881038 -0.845934 -0.806829 -0.763932 -0.717458 -0.667619 -0.614628 -0.558689 -0.5 -0.43875 -0.375119 -0.309275 -0.241377 -0.171573 -0.1 -0.0267863 0.0479501 0.1241 0.201562 0.280244 0.36006 0.44093 0.522783 0.605551 0.689173 0.773592 0.858756 0.944617 1.03113 1.11825 1.20595 1.29418 1.38292 1.47214 1.5618 1.65188 1.74236 1.83322 1.92443 2.01597 2.10784 2.2 2.29245 2.38516 2.47814 2.57136 2.6648 2.75847 2.85235 2.94643 3.0407 3.13514 3.22977 3.32456 3.4195 3.5146 3.60984 3.70522 3.80074 3.89638 3.99214 4.08802 4.18401 4.28011 4.37631 4.47262 4.56902 4.66551 4.76209 4.85875 4.9555 5.05233 5.14923 5.24621 5.34326 5.44038 5.53756 5.63481 5.73212 5.8295 5.92693 6.02441 6.12195 6.21954 6.31719 6.41488 6.51262 6.61041 6.70824 6.80612 6.90404 7.002 7.1 7.19804 
-1.1 -1.09737 -1.0895 -1.07646 -1.05835 -1.03531 -1.00751 -0.975154 -0.938447 -0.89762 -0.852909 -0.80455 -0.752779 -0.697827 -0.639915 -0.579256 -0.516052 -0.45049 -0.38275 -0.312994 -0.241377 -0.16804 -0.0931116 -0.0167132 0.0610456 0.140064 0.220248 0.301515 0.383785 0.466987 0.551056 0.635932 0.721559 0.807887 0.894868 0.982462 1.07063 1.15933 1.24853 1.3382 1.42832 1.51885 1.60977 1.70106 1.7927 1.88467 1.97695 2.06952 2.16236 2.25547 2.34883 2.44243 2.53624 2.63028 2.72451 2.81893 2.91354 3.00833 3.10328 3.19839 3.29365 3.38905 3.4846 3.58027 3.67608 3.772 3.86804 3.96419 4.06045 4.15681 4.25328 4.34983 4.44648 4.54321 4.64003 4.73692 4.8339 4.93095 5.02808 5.12527 5.22253 5.31986 5.41724 5.51469 5.6122 5.70976 5.80738 5.90505 6.00278 6.10055 6.19837 6.29624 6.39415 6.4921 6.5901 6.68814 6.78621 6.88433 6.98248 7.08067 7.1789 
-1.2 -1.19722 -1.18892 -1.17517 -1.15609 -1.13185 -1.10263 -1.06868 -1.03023 -0.987539 -0.940874 -0.890498 -0.836669 -0.77964 -0.719649 -0.656925 -0.591681 -0.524116 -0.454416 -0.38275 -0.309275 -0.234137 -0.157466 -0.0793836 0 0.0805844 0.162278 0.244996 0.328663 0.41321 0.498571 0.58469 0.671512 0.758989 0.847077 0.935734 1.02492 1.11461 1.20476 1.29535 1.38634 1.47772 1.56946 1.66154 1.75395 1.84665 1.93964 2.03289 2.1264 2.22015 2.31413 2.40833 2.50273 2.59732 2.6921 2.78705 2.88218 2.97746 3.07289 3.16847 3.26418 3.36003 3.456 3.5521 3.64831 3.74463 3.84105 3.93758 4.0342 4.13092 4.22772 4.32462 4.42159 4.51864 4.61577 4.71298 4.81025 4.90759 5.005 5.10247 5.2 5.29759 5.39524 5.49294 5.59069 5.6885 5.78635 5.88426 5.9822 6.0802 6.17824 6.27631 6.37443 6.47259 6.57079 6.66902 6.76729 6.8656 6.96393 7.06231 7.16071 
-1.3 -1.29706 -1.28828 -1.27373 -1.25358 -1.228 -1.19722 -1.16152 -1.12117 -1.07646 -1.02769 -0.975154 -0.919135 -0.859907 -0.797728 -0.732843 -0.665476 -0.595837 -0.524116 -0.45049 -0.375119 -0.298149 -0.219712 -0.13993 -0.0589118 0.0232433 0.106445 0.190611 0.275668 0.361547 0.448188 0.535534 0.623534 0.712142 0.801316 0.891015 0.981206 1.07185 1.16293 1.25441 1.34626 1.43847 1.531 1.62385 1.71699 1.81041 1.90408 1.998 2.09215 2.18652 2.2811 2.37587 2.47083 2.56597 2.66127 2.75674 2.85235 2.94811 3.04401 3.14003 3.23618 3.33246 3.42884 3.52534 3.62193 3.71863 3.81542 3.91231 4.00928 4.10634 4.20347 4.30068 4.39797 4.49533 4.59276 4.69025 4.78781 4.88543 4.98311 5.08084 5.17863 5.27647 5.37437 5.47231 5.5703 5.66833 5.76641 5.86454 5.9627 6.06091 6.15915 6.25743 6.35575 6.4541 6.55249 6.65091 6.74936 6.84784 6.94636 7.0449 7.14347 
-1.4 -1.39688 -1.38755 -1.37212 -1.35076 -1.32369 -1.2912 -1.25358 -1.21115 -1.16424 -1.1132 -1.05835 -1 -0.938447 -0.873971 -0.806829 -0.737258 -0.665476 -0.591681 -0.516052 -0.43875 -0.359924 -0.279706 -0.198215 -0.115559 -0.0318356 0.0528675 0.138471 0.224903 0.312099 0.4 0.488553 0.577709 0.667424 0.757659 0.848376 0.939543 1.03113 1.12311 1.21545 1.30813 1.40114 1.49444 1.58803 1.68188 1.77598 1.87032 1.96488 2.05964 2.15461 2.24976 2.34509 2.44059 2.53624 2.63205 2.728 2.82409 2.9203 3.01664 3.1131 3.20967 3.30635 3.40312 3.5 3.59697 3.69403 3.79117 3.8884 3.9857 4.08308 4.18053 4.27805 4.37564 4.47329 4.571 4.66877 4.7666 4.86448 4.96241 5.0604 5.15843 5.25651 5.35464 5.45281 5.55102 5.64928 5.74757 5.8459 5.94427 6.04268 6.14112 6.23959 6.33809 6.43663 6.5352 6.63379 6.73242 6.83107 6.92975 7.02846 7.12719 