# vtk DataFile Version 2.0
2D Surface
ASCII
DATASET RECTILINEAR_GRID
DIMENSIONS 21 21 1
X_COORDINATES 21 float
0
0.5
1
1.5
2
2.5
3
3.5
4
4.5
5
5.5
6
6.5
7
7.5
8
8.5
9
9.5
10
Y_COORDINATES 21 float
0
0.5
1
1.5
2
2.5
3
3.5
4
4.5
5
5.5
6
6.5
7
7.5
8
8.5
9
9.5
10
Z_COORDINATES 1 float
0
POINT_DATA 441
SCALARS SDValues float
LOOKUP_TABLE default
2.82843 2.5 2.23607 2.06155 2 2 2 2 2 2 2 2 2 2 2 2 2 2.06155 2.23607 2.5 2.82843 
2.5 2.12132 1.80278 1.58114 1.5 1.5 1.5 1.5 1.5 1.5 1.5 1.5 1.5 1.5 1.5 1.5 1.5 1.58114 1.80278 2.12132 2.5 
2.23607 1.80278 1.41421 1.11803 1 1 1 1 1 1 1 1 1 1 1 1 1 1.11803 1.41421 1.80278 2.23607 
2.06155 1.58114 1.11803 0.707107 0.5 0.5 0.5 0.5 0.5 0.5 0.5 0.5 0.5 0.5 0.5 0.5 0.5 0.707107 1.11803 1.58114 2.06155 
2 1.5 1 0.5 0 0 0 0 0 0 0 0 0 0 0 0 0 0.5 1 1.5 2 
2 1.5 1 0.5 0 -0.5 -0.5 -0.5 -0.5 -0.5 -0.5 -0.5 -0.5 -0.5 -0.5 -0.5 0 0.5 1 1.5 2 
2 1.5 1 0.5 0 -0.5 -1 -1 -1 -1 -1 -1 -1 -1 -1 -0.5 0 0.5 1 1.5 2 
2 1.5 1 0.5 0 -0.5 -1 -1.5 -1.5 -1.5 -1.5 -1.5 -1.5 -1.5 -1 -0.5 0 0.5 1 1.5 2 
2 1.5 1 0.5 0 -0.5 -1 -1.5 -2 -2 -2 -2 -2 -1.5 -1 -0.5 0 0.5 1 1.5 2 
2 1.5 1 0.5 0 -0.5 -1 -1.5 -2 -2.5 -2.5 -2.5 -2 -1.5 -1 -0.5 0 0.5 1 1.5 2 
2 1.5 1 0.5 0 -0.5 -1 -1.5 -2 -2.5 -3 -2.5 -2 -1.5 -1 -0.5 0 0.5 1 1.5 2 
2 1.5 1 0.5 0 -0.5 -1 -1.5 -2 -2.5 -2.5 -2.5 -2 -1.5 -1 -0.5 0 0.5 1 1.5 2 
2 1.5 1 0.5 0 -0.5 -1 -1.5 -2 -2 -2 -2 -2 -1.5 -1 -0.5 0 0.5 1 1.5 2 
2 1.5 1 0.5 0 -0.5 -1 -1.5 -1.5 -1.5 -1.5 -1.5 -1.5 -1.5 -1 -0.5 0 0.5 1 1.5 2 
2 1.5 1 0.5 0 -0.5 -1 -1 -1 -1 -1 -1 -1 -1 -1 -0.5 0 0.5 1 1.5 2 
2 1.5 1 0.5 0 -0.5 -0.5 -0.5 -0.5 -0.5 -0.5 -0.5 -0.5 -0.5 -0.5 -0.5 0 0.5 1 1.5 2 
2 1.5 1 0.5 0 0 0 0 0 0 0 0 0 0 0 0 0 0.5 1 1.5 2 
2.06155 1.58114 1.11803 0.707107 0.5 0.5 0.5 0.5 0.5 0.5 0.5 0.5 0.5 0.5 0.5 0.5 0.5 0.707107 1.11803 1.58114 2.06155 
2.23607 1.80278 1.41421 1.11803 1 1 1 1 1 1 1 1 1 1 1 1 1 1.11803 1.41421 1.80278 2.23607 
2.5 2.12132 1.80278 1.58114 1.5 1.5 1.5 1.5 1.5 1.5 1.5 1.5 1.5 1.5 1.5 1.5 1.5 1.58114 1.80278 2.12132 2.5 
2.82843 2.5 2.23607 2.06155 2 2 2 2 2 2 2 2 2 2 2 2 2 2.06155 2.23607 2.5 2.82843 
