# vtk DataFile Version 2.0
2D Surface
ASCII
DATASET RECTILINEAR_GRID
DIMENSIONS 6 6 1
X_COORDINATES 6 float
0
2
4
6
8
10
Y_COORDINATES 6 float
0
2
4
6
8
10
Z_COORDINATES 1 float
0
POINT_DATA 36
SCALARS SDValues float
LOOKUP_TABLE default
4.07107 2.83095 2.09902 2.09902 2.83095 4.07107 
2.83095 1.24264 0.162278 0.162278 1.24264 2.83095 
2.09902 0.162278 -1.58579 -1.58579 0.162278 2.09902 
2.09902 0.162278 -1.58579 -1.58579 0.162278 2.09902 
2.83095 1.24264 0.162278 0.162278 1.24264 2.83095 
4.07107 2.83095 2.09902 2.09902 2.83095 4.07107 
