# vtk DataFile Version 2.0
2D Surface
ASCII
DATASET RECTILINEAR_GRID
DIMENSIONS 101 101 1
X_COORDINATES 101 float
0
0.1
0.2
0.3
0.4
0.5
0.6
0.7
0.8
0.9
1
1.1
1.2
1.3
1.4
1.5
1.6
1.7
1.8
1.9
2
2.1
2.2
2.3
2.4
2.5
2.6
2.7
2.8
2.9
3
3.1
3.2
3.3
3.4
3.5
3.6
3.7
3.8
3.9
4
4.1
4.2
4.3
4.4
4.5
4.6
4.7
4.8
4.9
5
5.1
5.2
5.3
5.4
5.5
5.6
5.7
5.8
5.9
6
6.1
6.2
6.3
6.4
6.5
6.6
6.7
6.8
6.9
7
7.1
7.2
7.3
7.4
7.5
7.6
7.7
7.8
7.9
8
8.1
8.2
8.3
8.4
8.5
8.6
8.7
8.8
8.9
9
9.1
9.2
9.3
9.4
9.5
9.6
9.7
9.8
9.9
10
Y_COORDINATES 101 float
0
0.1
0.2
0.3
0.4
0.5
0.6
0.7
0.8
0.9
1
1.1
1.2
1.3
1.4
1.5
1.6
1.7
1.8
1.9
2
2.1
2.2
2.3
2.4
2.5
2.6
2.7
2.8
2.9
3
3.1
3.2
3.3
3.4
3.5
3.6
3.7
3.8
3.9
4
4.1
4.2
4.3
4.4
4.5
4.6
4.7
4.8
4.9
5
5.1
5.2
5.3
5.4
5.5
5.6
5.7
5.8
5.9
6
6.1
6.2
6.3
6.4
6.5
6.6
6.7
6.8
6.9
7
7.1
7.2
7.3
7.4
7.5
7.6
7.7
7.8
7.9
8
8.1
8.2
8.3
8.4
8.5
8.6
8.7
8.8
8.9
9
9.1
9.2
9.3
9.4
9.5
9.6
9.7
9.8
9.9
10
Z_COORDINATES 1 float
0
POINT_DATA 10201
SCALARS SDValues float
LOOKUP_TABLE default
-1.19722 -1.25071 -1.3 -1.34471 -1.38445 -1.41886 -1.44758 -1.47029 -1.48673 -1.49667 -1.5 -1.49667 -1.48673 -1.47029 -1.44758 -1.41886 -1.38445 -1.34471 -1.3 -1.25071 -1.19722 -1.13989 -1.07906 -1.01506 -0.948172 -0.87868 -0.806829 -0.732843 -0.656925 -0.579256 -0.5 -0.419302 -0.337295 -0.254094 -0.169806 -0.0845241 0.0016662 0.088689 0.176476 0.264966 0.354102 0.443835 0.534119 0.624914 0.716181 0.807887 0.9 0.992493 1.08534 1.17852 1.272 1.36578 1.45982 1.55412 1.64866 1.74342 1.83839 1.93356 2.02892 2.12445 2.22015 2.12445 2.02892 1.93356 1.83839 1.74342 1.64866 1.55412 1.45982 1.36578 1.272 1.17852 1.08534 0.992493 0.9 0.807887 0.716181 0.624914 0.534119 0.443835 0.354102 0.264966 0.176476 0.088689 0.0016662 -0.0845241 -0.169806 -0.254094 -0.337295 -0.419302 -0.5 -0.579256 -0.656925 -0.732843 -0.806829 -0.87868 -0.948172 -1.01506 -1.07906 -1.13989 -1.19722 
-1.27953 -1.33567 -1.38755 -1.43475 -1.47685 -1.51339 -1.54398 -1.56822 -1.58579 -1.59643 -1.6 -1.59643 -1.58579 -1.56822 -1.54398 -1.51339 -1.47685 -1.43475 -1.38755 -1.33567 -1.27953 -1.21955 -1.15609 -1.0895 -1.0201 -0.948172 -0.873971 -0.797728 -0.719649 -0.639915 -0.558689 -0.476114 -0.392319 -0.307418 -0.221511 -0.13469 -0.0470354 0.0413813 0.130495 0.220248 0.310589 0.40147 0.49285 0.58469 0.676955 0.769615 0.862642 0.956008 1.04969 1.14367 1.23792 1.33244 1.42719 1.52217 1.61736 1.71275 1.80833 1.90408 2 2.09608 2.1923 2.09608 2 1.90408 1.80833 1.71275 1.61736 1.52217 1.42719 1.33244 1.23792 1.14367 1.04969 0.956008 0.862642 0.769615 0.676955 0.58469 0.49285 0.40147 0.310589 0.220248 0.130495 0.0413813 -0.0470354 -0.13469 -0.221511 -0.307418 -0.392319 -0.476114 -0.558689 -0.639915 -0.719649 -0.797728 -0.873971 -0.948172 -1.0201 -1.0895 -1.15609 -1.21955 -1.27953 
-1.35988 -1.41886 -1.47357 -1.52352 -1.56822 -1.60716 -1.63985 -1.66583 -1.68471 -1.69616 -1.7 -1.69616 -1.68471 -1.66583 -1.63985 -1.60716 -1.56822 -1.52352 -1.47357 -1.41886 -1.35988 -1.29706 -1.23082 -1.16152 -1.0895 -1.01506 -0.938447 -0.859907 -0.77964 -0.697827 -0.614628 -0.530182 -0.444614 -0.358031 -0.270531 -0.182199 -0.0931116 -0.00333519 0.0870698 0.17805 0.269557 0.361547 0.453983 0.54683 0.640055 0.733631 0.827532 0.921734 1.01622 1.11096 1.20595 1.30116 1.39659 1.49222 1.58803 1.68402 1.78017 1.87647 1.97293 2.06952 2.16624 2.06952 1.97293 1.87647 1.78017 1.68402 1.58803 1.49222 1.39659 1.30116 1.20595 1.11096 1.01622 0.921734 0.827532 0.733631 0.640055 0.54683 0.453983 0.361547 0.269557 0.17805 0.0870698 -0.00333519 -0.0931116 -0.182199 -0.270531 -0.358031 -0.444614 -0.530182 -0.614628 -0.697827 -0.77964 -0.859907 -0.938447 -1.01506 -1.0895 -1.16152 -1.23082 -1.29706 -1.35988 
-1.43795 -1.5 -1.55778 -1.61076 -1.65836 -1.7 -1.73509 -1.76307 -1.78345 -1.79584 -1.8 -1.79584 -1.78345 -1.76307 -1.73509 -1.7 -1.65836 -1.61076 -1.55778 -1.5 -1.43795 -1.37212 -1.30294 -1.23082 -1.15609 -1.07906 -1 -0.919135 -0.836669 -0.752779 -0.667619 -0.581323 -0.494007 -0.405776 -0.316718 -0.226915 -0.136436 -0.0453427 0.0463092 0.138471 0.231099 0.324154 0.417601 0.51141 0.605551 0.7 0.794733 0.88973 0.984972 1.08044 1.17612 1.272 1.36807 1.4643 1.5607 1.65725 1.75395 1.85077 1.94773 2.0448 2.14198 2.0448 1.94773 1.85077 1.75395 1.65725 1.5607 1.4643 1.36807 1.272 1.17612 1.08044 0.984972 0.88973 0.794733 0.7 0.605551 0.51141 0.417601 0.324154 0.231099 0.138471 0.0463092 -0.0453427 -0.136436 -0.226915 -0.316718 -0.405776 -0.494007 -0.581323 -0.667619 -0.752779 -0.836669 -0.919135 -1 -1.07906 -1.15609 -1.23082 -1.30294 -1.37212 -1.43795 
-1.51339 -1.57873 -1.63985 -1.69616 -1.747 -1.7917 -1.82953 -1.85982 -1.88197 -1.89546 -1.9 -1.89546 -1.88197 -1.85982 -1.82953 -1.7917 -1.747 -1.69616 -1.63985 -1.57873 -1.51339 -1.44437 -1.37212 -1.29706 -1.21955 -1.13989 -1.05835 -0.975154 -0.890498 -0.80455 -0.717458 -0.629346 -0.540325 -0.45049 -0.359924 -0.2687 -0.176881 -0.0845241 0.00832179 0.101612 0.195309 0.289377 0.383785 0.478505 0.573514 0.668787 0.764306 0.860052 0.956008 1.05216 1.14849 1.245 1.34166 1.43847 1.53542 1.63249 1.72969 1.82701 1.92443 2.02195 2.11957 2.02195 1.92443 1.82701 1.72969 1.63249 1.53542 1.43847 1.34166 1.245 1.14849 1.05216 0.956008 0.860052 0.764306 0.668787 0.573514 0.478505 0.383785 0.289377 0.195309 0.101612 0.00832179 -0.0845241 -0.176881 -0.2687 -0.359924 -0.45049 -0.540325 -0.629346 -0.717458 -0.80455 -0.890498 -0.975154 -1.05835 -1.13989 -1.21955 -1.29706 -1.37212 -1.44437 -1.51339 
-1.58579 -1.65464 -1.71938 -1.77934 -1.83381 -1.88197 -1.92297 -1.95597 -1.9802 -1.99501 -2 -1.99501 -1.9802 -1.95597 -1.92297 -1.88197 -1.83381 -1.77934 -1.71938 -1.65464 -1.58579 -1.51339 -1.43795 -1.35988 -1.27953 -1.19722 -1.1132 -1.02769 -0.940874 -0.852909 -0.763932 -0.674059 -0.583391 -0.492013 -0.4 -0.307418 -0.214322 -0.120764 -0.0267863 0.0675723 0.162278 0.257299 0.352611 0.448188 0.544009 0.640055 0.736308 0.832754 0.929377 1.02616 1.12311 1.22019 1.31741 1.41475 1.51221 1.60977 1.70744 1.80521 1.90306 2.001 2.09902 2.001 1.90306 1.80521 1.70744 1.60977 1.51221 1.41475 1.31741 1.22019 1.12311 1.02616 0.929377 0.832754 0.736308 0.640055 0.544009 0.448188 0.352611 0.257299 0.162278 0.0675723 -0.0267863 -0.120764 -0.214322 -0.307418 -0.4 -0.492013 -0.583391 -0.674059 -0.763932 -0.852909 -0.940874 -1.02769 -1.1132 -1.19722 -1.27953 -1.35988 -1.43795 -1.51339 -1.58579 
-1.65464 -1.72721 -1.79584 -1.85982 -1.91833 -1.97044 -2.01511 -2.05132 -2.07805 -2.09446 -2.1 -2.09446 -2.07805 -2.05132 -2.01511 -1.97044 -1.91833 -1.85982 -1.79584 -1.72721 -1.65464 -1.57873 -1.5 -1.41886 -1.33567 -1.25071 -1.16424 -1.07646 -0.987539 -0.89762 -0.806829 -0.715268 -0.623027 -0.530182 -0.436799 -0.342934 -0.248637 -0.15395 -0.0589118 0.0364453 0.132092 0.228002 0.324154 0.420526 0.517101 0.613862 0.710795 0.807887 0.905125 1.0025 1.1 1.19762 1.29535 1.39318 1.4911 1.58912 1.68722 1.78539 1.88365 1.98197 2.08035 1.98197 1.88365 1.78539 1.68722 1.58912 1.4911 1.39318 1.29535 1.19762 1.1 1.0025 0.905125 0.807887 0.710795 0.613862 0.517101 0.420526 0.324154 0.228002 0.132092 0.0364453 -0.0589118 -0.15395 -0.248637 -0.342934 -0.436799 -0.530182 -0.623027 -0.715268 -0.806829 -0.89762 -0.987539 -1.07646 -1.16424 -1.25071 -1.33567 -1.41886 -1.5 -1.57873 -1.65464 
-1.71938 -1.79584 -1.86863 -1.93699 -2 -2.0566 -2.10557 -2.1456 -2.17538 -2.19377 -2.2 -2.19377 -2.17538 -2.1456 -2.10557 -2.0566 -2 -1.93699 -1.86863 -1.79584 -1.71938 -1.63985 -1.55778 -1.47357 -1.38755 -1.3 -1.21115 -1.12117 -1.03023 -0.938447 -0.845934 -0.752779 -0.65906 -0.564841 -0.470178 -0.375119 -0.279706 -0.183974 -0.087956 0.00832179 0.104835 0.201562 0.298485 0.395585 0.49285 0.590265 0.687818 0.785499 0.883298 0.981206 1.07922 1.17732 1.27551 1.37379 1.47214 1.57056 1.66905 1.7676 1.86621 1.96488 2.0636 1.96488 1.86621 1.7676 1.66905 1.57056 1.47214 1.37379 1.27551 1.17732 1.07922 0.981206 0.883298 0.785499 0.687818 0.590265 0.49285 0.395585 0.298485 0.201562 0.104835 0.00832179 -0.087956 -0.183974 -0.279706 -0.375119 -0.470178 -0.564841 -0.65906 -0.752779 -0.845934 -0.938447 -1.03023 -1.12117 -1.21115 -1.3 -1.38755 -1.47357 -1.55778 -1.63985 -1.71938 
-1.77934 -1.85982 -1.93699 -2.01005 -2.07805 -2.13977 -2.19377 -2.23842 -2.27199 -2.29289 -2.3 -2.29289 -2.27199 -2.23842 -2.19377 -2.13977 -2.07805 -2.01005 -1.93699 -1.85982 -1.77934 -1.69616 -1.61076 -1.52352 -1.43475 -1.34471 -1.25358 -1.16152 -1.06868 -0.975154 -0.881038 -0.786406 -0.691321 -0.595837 -0.5 -0.403849 -0.307418 -0.210735 -0.113826 -0.0167132 0.0805844 0.17805 0.275668 0.373426 0.471311 0.569314 0.667424 0.765634 0.863936 0.962323 1.06079 1.15933 1.25793 1.3566 1.45533 1.55412 1.65296 1.75184 1.85077 1.94975 2.04876 1.94975 1.85077 1.75184 1.65296 1.55412 1.45533 1.3566 1.25793 1.15933 1.06079 0.962323 0.863936 0.765634 0.667424 0.569314 0.471311 0.373426 0.275668 0.17805 0.0805844 -0.0167132 -0.113826 -0.210735 -0.307418 -0.403849 -0.5 -0.595837 -0.691321 -0.786406 -0.881038 -0.975154 -1.06868 -1.16152 -1.25358 -1.34471 -1.43475 -1.52352 -1.61076 -1.69616 -1.77934 
-1.83381 -1.91833 -2 -2.07805 -2.15147 -2.21898 -2.27889 -2.32918 -2.36754 -2.39172 -2.4 -2.39172 -2.36754 -2.32918 -2.27889 -2.21898 -2.15147 -2.07805 -2 -1.91833 -1.83381 -1.747 -1.65836 -1.56822 -1.47685 -1.38445 -1.2912 -1.19722 -1.10263 -1.00751 -0.911939 -0.815967 -0.719649 -0.623027 -0.526137 -0.429008 -0.331667 -0.234137 -0.136436 -0.0385814 0.0594117 0.157531 0.255764 0.354102 0.452535 0.551056 0.649658 0.748333 0.847077 0.945884 1.04475 1.14367 1.24264 1.34166 1.44072 1.53982 1.63897 1.73814 1.83735 1.9366 2.03587 1.9366 1.83735 1.73814 1.63897 1.53982 1.44072 1.34166 1.24264 1.14367 1.04475 0.945884 0.847077 0.748333 0.649658 0.551056 0.452535 0.354102 0.255764 0.157531 0.0594117 -0.0385814 -0.136436 -0.234137 -0.331667 -0.429008 -0.526137 -0.623027 -0.719649 -0.815967 -0.911939 -1.00751 -1.10263 -1.19722 -1.2912 -1.38445 -1.47685 -1.56822 -1.65836 -1.747 -1.83381 
-1.88197 -1.97044 -2.0566 -2.13977 -2.21898 -2.29289 -2.35969 -2.4169 -2.46148 -2.4901 -2.5 -2.4901 -2.46148 -2.4169 -2.35969 -2.29289 -2.21898 -2.13977 -2.0566 -1.97044 -1.88197 -1.7917 -1.7 -1.60716 -1.51339 -1.41886 -1.32369 -1.228 -1.13185 -1.03531 -0.938447 -0.841297 -0.743897 -0.64628 -0.54847 -0.45049 -0.35236 -0.254094 -0.155707 -0.0572122 0.0413813 0.140064 0.238827 0.337664 0.436568 0.535534 0.634556 0.733631 0.832754 0.931921 1.03113 1.13038 1.22966 1.32897 1.42832 1.52769 1.62709 1.72652 1.82597 1.92544 2.02494 1.92544 1.82597 1.72652 1.62709 1.52769 1.42832 1.32897 1.22966 1.13038 1.03113 0.931921 0.832754 0.733631 0.634556 0.535534 0.436568 0.337664 0.238827 0.140064 0.0413813 -0.0572122 -0.155707 -0.254094 -0.35236 -0.45049 -0.54847 -0.64628 -0.743897 -0.841297 -0.938447 -1.03531 -1.13185 -1.228 -1.32369 -1.41886 -1.51339 -1.60716 -1.7 -1.7917 -1.88197 
-1.92297 -2.01511 -2.10557 -2.19377 -2.27889 -2.35969 -2.43431 -2.5 -2.55279 -2.58769 -2.6 -2.58769 -2.55279 -2.5 -2.43431 -2.35969 -2.27889 -2.19377 -2.10557 -2.01511 -1.92297 -1.82953 -1.73509 -1.63985 -1.54398 -1.44758 -1.35076 -1.25358 -1.15609 -1.05835 -0.960392 -0.862244 -0.763932 -0.665476 -0.566895 -0.468202 -0.369411 -0.270531 -0.171573 -0.0725438 0.0265492 0.1257 0.224903 0.324154 0.423449 0.522783 0.622154 0.721559 0.820995 0.920459 1.01995 1.11947 1.219 1.31856 1.41814 1.51774 1.61736 1.71699 1.81664 1.9163 2.01597 1.9163 1.81664 1.71699 1.61736 1.51774 1.41814 1.31856 1.219 1.11947 1.01995 0.920459 0.820995 0.721559 0.622154 0.522783 0.423449 0.324154 0.224903 0.1257 0.0265492 -0.0725438 -0.171573 -0.270531 -0.369411 -0.468202 -0.566895 -0.665476 -0.763932 -0.862244 -0.960392 -1.05835 -1.15609 -1.25358 -1.35076 -1.44758 -1.54398 -1.63985 -1.73509 -1.82953 -1.92297 
-1.95597 -2.05132 -2.1456 -2.23842 -2.32918 -2.4169 -2.5 -2.57574 -2.63944 -2.68377 -2.7 -2.68377 -2.63944 -2.57574 -2.5 -2.4169 -2.32918 -2.23842 -2.1456 -2.05132 -1.95597 -1.85982 -1.76307 -1.66583 -1.56822 -1.47029 -1.37212 -1.27373 -1.17517 -1.07646 -0.977625 -0.87868 -0.77964 -0.680517 -0.581323 -0.482064 -0.38275 -0.283384 -0.183974 -0.0845241 0.0149627 0.114482 0.214032 0.313608 0.41321 0.512834 0.612478 0.712142 0.811824 0.911521 1.01123 1.11096 1.2107 1.31045 1.41022 1.50999 1.60977 1.70956 1.80937 1.90918 2.00899 1.90918 1.80937 1.70956 1.60977 1.50999 1.41022 1.31045 1.2107 1.11096 1.01123 0.911521 0.811824 0.712142 0.612478 0.512834 0.41321 0.313608 0.214032 0.114482 0.0149627 -0.0845241 -0.183974 -0.283384 -0.38275 -0.482064 -0.581323 -0.680517 -0.77964 -0.87868 -0.977625 -1.07646 -1.17517 -1.27373 -1.37212 -1.47029 -1.56822 -1.66583 -1.76307 -1.85982 -1.95597 
-1.9802 -2.07805 -2.17538 -2.27199 -2.36754 -2.46148 -2.55279 -2.63944 -2.71716 -2.77639 -2.8 -2.77639 -2.71716 -2.63944 -2.55279 -2.46148 -2.36754 -2.27199 -2.17538 -2.07805 -1.9802 -1.88197 -1.78345 -1.68471 -1.58579 -1.48673 -1.38755 -1.28828 -1.18892 -1.0895 -0.990025 -0.890498 -0.790928 -0.691321 -0.591681 -0.492013 -0.392319 -0.292603 -0.192866 -0.0931116 0.00665928 0.106445 0.206244 0.306055 0.405877 0.50571 0.605551 0.705401 0.80526 0.905125 1.005 1.10488 1.20476 1.30465 1.40454 1.50444 1.60435 1.70425 1.80416 1.90408 2.004 1.90408 1.80416 1.70425 1.60435 1.50444 1.40454 1.30465 1.20476 1.10488 1.005 0.905125 0.80526 0.705401 0.605551 0.50571 0.405877 0.306055 0.206244 0.106445 0.00665928 -0.0931116 -0.192866 -0.292603 -0.392319 -0.492013 -0.591681 -0.691321 -0.790928 -0.890498 -0.990025 -1.0895 -1.18892 -1.28828 -1.38755 -1.48673 -1.58579 -1.68471 -1.78345 -1.88197 -1.9802 
-1.99501 -2.09446 -2.19377 -2.29289 -2.39172 -2.4901 -2.58769 -2.68377 -2.77639 -2.85858 -2.9 -2.85858 -2.77639 -2.68377 -2.58769 -2.4901 -2.39172 -2.29289 -2.19377 -2.09446 -1.99501 -1.89546 -1.79584 -1.69616 -1.59643 -1.49667 -1.39688 -1.29706 -1.19722 -1.09737 -0.997502 -0.89762 -0.797728 -0.697827 -0.597918 -0.498001 -0.398078 -0.298149 -0.198215 -0.0982764 0.0016662 0.101612 0.201562 0.301515 0.40147 0.501428 0.601389 0.701351 0.801316 0.901282 1.00125 1.10122 1.20119 1.30116 1.40114 1.50111 1.60109 1.70106 1.80104 1.90102 2.001 1.90102 1.80104 1.70106 1.60109 1.50111 1.40114 1.30116 1.20119 1.10122 1.00125 0.901282 0.801316 0.701351 0.601389 0.501428 0.40147 0.301515 0.201562 0.101612 0.0016662 -0.0982764 -0.198215 -0.298149 -0.398078 -0.498001 -0.597918 -0.697827 -0.797728 -0.89762 -0.997502 -1.09737 -1.19722 -1.29706 -1.39688 -1.49667 -1.59643 -1.69616 -1.79584 -1.89546 -1.99501 
-2 -2.1 -2.2 -2.3 -2.4 -2.5 -2.6 -2.7 -2.8 -2.9 -3 -2.9 -2.8 -2.7 -2.6 -2.5 -2.4 -2.3 -2.2 -2.1 -2 -1.9 -1.8 -1.7 -1.6 -1.5 -1.4 -1.3 -1.2 -1.1 -1 -0.9 -0.8 -0.7 -0.6 -0.5 -0.4 -0.3 -0.2 -0.1 0 0.1 0.2 0.3 0.4 0.5 0.6 0.7 0.8 0.9 1 1.1 1.2 1.3 1.4 1.5 1.6 1.7 1.8 1.9 2 1.9 1.8 1.7 1.6 1.5 1.4 1.3 1.2 1.1 1 0.9 0.8 0.7 0.6 0.5 0.4 0.3 0.2 0.1 0 -0.1 -0.2 -0.3 -0.4 -0.5 -0.6 -0.7 -0.8 -0.9 -1 -1.1 -1.2 -1.3 -1.4 -1.5 -1.6 -1.7 -1.8 -1.9 -2 
-1.99501 -2.09446 -2.19377 -2.29289 -2.39172 -2.4901 -2.58769 -2.68377 -2.77639 -2.85858 -2.9 -2.85858 -2.77639 -2.68377 -2.58769 -2.4901 -2.39172 -2.29289 -2.19377 -2.09446 -1.99501 -1.89546 -1.79584 -1.69616 -1.59643 -1.49667 -1.39688 -1.29706 -1.19722 -1.09737 -0.997502 -0.89762 -0.797728 -0.697827 -0.597918 -0.498001 -0.398078 -0.298149 -0.198215 -0.0982764 0.0016662 0.101612 0.201562 0.301515 0.40147 0.501428 0.601389 0.701351 0.801316 0.901282 1.00125 1.10122 1.20119 1.30116 1.40114 1.50111 1.60109 1.70106 1.80104 1.90102 2.001 1.90102 1.80104 1.70106 1.60109 1.50111 1.40114 1.30116 1.20119 1.10122 1.00125 0.901282 0.801316 0.701351 0.601389 0.501428 0.40147 0.301515 0.201562 0.101612 0.0016662 -0.0982764 -0.198215 -0.298149 -0.398078 -0.498001 -0.597918 -0.697827 -0.797728 -0.89762 -0.997502 -1.09737 -1.19722 -1.29706 -1.39688 -1.49667 -1.59643 -1.69616 -1.79584 -1.89546 -1.99501 
-1.9802 -2.07805 -2.17538 -2.27199 -2.36754 -2.46148 -2.55279 -2.63944 -2.71716 -2.77639 -2.8 -2.77639 -2.71716 -2.63944 -2.55279 -2.46148 -2.36754 -2.27199 -2.17538 -2.07805 -1.9802 -1.88197 -1.78345 -1.68471 -1.58579 -1.48673 -1.38755 -1.28828 -1.18892 -1.0895 -0.990025 -0.890498 -0.790928 -0.691321 -0.591681 -0.492013 -0.392319 -0.292603 -0.192866 -0.0931116 0.00665928 0.106445 0.206244 0.306055 0.405877 0.50571 0.605551 0.705401 0.80526 0.905125 1.005 1.10488 1.20476 1.30465 1.40454 1.50444 1.60435 1.70425 1.80416 1.90408 2.004 1.90408 1.80416 1.70425 1.60435 1.50444 1.40454 1.30465 1.20476 1.10488 1.005 0.905125 0.80526 0.705401 0.605551 0.50571 0.405877 0.306055 0.206244 0.106445 0.00665928 -0.0931116 -0.192866 -0.292603 -0.392319 -0.492013 -0.591681 -0.691321 -0.790928 -0.890498 -0.990025 -1.0895 -1.18892 -1.28828 -1.38755 -1.48673 -1.58579 -1.68471 -1.78345 -1.88197 -1.9802 
-1.95597 -2.05132 -2.1456 -2.23842 -2.32918 -2.4169 -2.5 -2.57574 -2.63944 -2.68377 -2.7 -2.68377 -2.63944 -2.57574 -2.5 -2.4169 -2.32918 -2.23842 -2.1456 -2.05132 -1.95597 -1.85982 -1.76307 -1.66583 -1.56822 -1.47029 -1.37212 -1.27373 -1.17517 -1.07646 -0.977625 -0.87868 -0.77964 -0.680517 -0.581323 -0.482064 -0.38275 -0.283384 -0.183974 -0.0845241 0.0149627 0.114482 0.214032 0.313608 0.41321 0.512834 0.612478 0.712142 0.811824 0.911521 1.01123 1.11096 1.2107 1.31045 1.41022 1.50999 1.60977 1.70956 1.80937 1.90918 2.00899 1.90918 1.80937 1.70956 1.60977 1.50999 1.41022 1.31045 1.2107 1.11096 1.01123 0.911521 0.811824 0.712142 0.612478 0.512834 0.41321 0.313608 0.214032 0.114482 0.0149627 -0.0845241 -0.183974 -0.283384 -0.38275 -0.482064 -0.581323 -0.680517 -0.77964 -0.87868 -0.977625 -1.07646 -1.17517 -1.27373 -1.37212 -1.47029 -1.56822 -1.66583 -1.76307 -1.85982 -1.95597 
-1.92297 -2.01511 -2.10557 -2.19377 -2.27889 -2.35969 -2.43431 -2.5 -2.55279 -2.58769 -2.6 -2.58769 -2.55279 -2.5 -2.43431 -2.35969 -2.27889 -2.19377 -2.10557 -2.01511 -1.92297 -1.82953 -1.73509 -1.63985 -1.54398 -1.44758 -1.35076 -1.25358 -1.15609 -1.05835 -0.960392 -0.862244 -0.763932 -0.665476 -0.566895 -0.468202 -0.369411 -0.270531 -0.171573 -0.0725438 0.0265492 0.1257 0.224903 0.324154 0.423449 0.522783 0.622154 0.721559 0.820995 0.920459 1.01995 1.11947 1.219 1.31856 1.41814 1.51774 1.61736 1.71699 1.81664 1.9163 2.01597 1.9163 1.81664 1.71699 1.61736 1.51774 1.41814 1.31856 1.219 1.11947 1.01995 0.920459 0.820995 0.721559 0.622154 0.522783 0.423449 0.324154 0.224903 0.1257 0.0265492 -0.0725438 -0.171573 -0.270531 -0.369411 -0.468202 -0.566895 -0.665476 -0.763932 -0.862244 -0.960392 -1.05835 -1.15609 -1.25358 -1.35076 -1.44758 -1.54398 -1.63985 -1.73509 -1.82953 -1.92297 
-1.88197 -1.97044 -2.0566 -2.13977 -2.21898 -2.29289 -2.35969 -2.4169 -2.46148 -2.4901 -2.5 -2.4901 -2.46148 -2.4169 -2.35969 -2.29289 -2.21898 -2.13977 -2.0566 -1.97044 -1.88197 -1.7917 -1.7 -1.60716 -1.51339 -1.41886 -1.32369 -1.228 -1.13185 -1.03531 -0.938447 -0.841297 -0.743897 -0.64628 -0.54847 -0.45049 -0.35236 -0.254094 -0.155707 -0.0572122 0.0413813 0.140064 0.238827 0.337664 0.436568 0.535534 0.634556 0.733631 0.832754 0.931921 1.03113 1.13038 1.22966 1.32897 1.42832 1.52769 1.62709 1.72652 1.82597 1.92544 2.02494 1.92544 1.82597 1.72652 1.62709 1.52769 1.42832 1.32897 1.22966 1.13038 1.03113 0.931921 0.832754 0.733631 0.634556 0.535534 0.436568 0.337664 0.238827 0.140064 0.0413813 -0.0572122 -0.155707 -0.254094 -0.35236 -0.45049 -0.54847 -0.64628 -0.743897 -0.841297 -0.938447 -1.03531 -1.13185 -1.228 -1.32369 -1.41886 -1.51339 -1.60716 -1.7 -1.7917 -1.88197 
-1.83381 -1.91833 -2 -2.07805 -2.15147 -2.21898 -2.27889 -2.32918 -2.36754 -2.39172 -2.4 -2.39172 -2.36754 -2.32918 -2.27889 -2.21898 -2.15147 -2.07805 -2 -1.91833 -1.83381 -1.747 -1.65836 -1.56822 -1.47685 -1.38445 -1.2912 -1.19722 -1.10263 -1.00751 -0.911939 -0.815967 -0.719649 -0.623027 -0.526137 -0.429008 -0.331667 -0.234137 -0.136436 -0.0385814 0.0594117 0.157531 0.255764 0.354102 0.452535 0.551056 0.649658 0.748333 0.847077 0.945884 1.04475 1.14367 1.24264 1.34166 1.44072 1.53982 1.63897 1.73814 1.83735 1.9366 2.03587 1.9366 1.83735 1.73814 1.63897 1.53982 1.44072 1.34166 1.24264 1.14367 1.04475 0.945884 0.847077 0.748333 0.649658 0.551056 0.452535 0.354102 0.255764 0.157531 0.0594117 -0.0385814 -0.136436 -0.234137 -0.331667 -0.429008 -0.526137 -0.623027 -0.719649 -0.815967 -0.911939 -1.00751 -1.10263 -1.19722 -1.2912 -1.38445 -1.47685 -1.56822 -1.65836 -1.747 -1.83381 
-1.77934 -1.85982 -1.93699 -2.01005 -2.07805 -2.13977 -2.19377 -2.23842 -2.27199 -2.29289 -2.3 -2.29289 -2.27199 -2.23842 -2.19377 -2.13977 -2.07805 -2.01005 -1.93699 -1.85982 -1.77934 -1.69616 -1.61076 -1.52352 -1.43475 -1.34471 -1.25358 -1.16152 -1.06868 -0.975154 -0.881038 -0.786406 -0.691321 -0.595837 -0.5 -0.403849 -0.307418 -0.210735 -0.113826 -0.0167132 0.0805844 0.17805 0.275668 0.373426 0.471311 0.569314 0.667424 0.765634 0.863936 0.962323 1.06079 1.15933 1.25793 1.3566 1.45533 1.55412 1.65296 1.75184 1.85077 1.94975 2.04876 1.94975 1.85077 1.75184 1.65296 1.55412 1.45533 1.3566 1.25793 1.15933 1.06079 0.962323 0.863936 0.765634 0.667424 0.569314 0.471311 0.373426 0.275668 0.17805 0.0805844 -0.0167132 -0.113826 -0.210735 -0.307418 -0.403849 -0.5 -0.595837 -0.691321 -0.786406 -0.881038 -0.975154 -1.06868 -1.16152 -1.25358 -1.34471 -1.43475 -1.52352 -1.61076 -1.69616 -1.77934 
-1.71938 -1.79584 -1.86863 -1.93699 -2 -2.0566 -2.10557 -2.1456 -2.17538 -2.19377 -2.2 -2.19377 -2.17538 -2.1456 -2.10557 -2.0566 -2 -1.93699 -1.86863 -1.79584 -1.71938 -1.63985 -1.55778 -1.47357 -1.38755 -1.3 -1.21115 -1.12117 -1.03023 -0.938447 -0.845934 -0.752779 -0.65906 -0.564841 -0.470178 -0.375119 -0.279706 -0.183974 -0.087956 0.00832179 0.104835 0.201562 0.298485 0.395585 0.49285 0.590265 0.687818 0.785499 0.883298 0.981206 1.07922 1.17732 1.27551 1.37379 1.47214 1.57056 1.66905 1.7676 1.86621 1.96488 2.0636 1.96488 1.86621 1.7676 1.66905 1.57056 1.47214 1.37379 1.27551 1.17732 1.07922 0.981206 0.883298 0.785499 0.687818 0.590265 0.49285 0.395585 0.298485 0.201562 0.104835 0.00832179 -0.087956 -0.183974 -0.279706 -0.375119 -0.470178 -0.564841 -0.65906 -0.752779 -0.845934 -0.938447 -1.03023 -1.12117 -1.21115 -1.3 -1.38755 -1.47357 -1.55778 -1.63985 -1.71938 
-1.65464 -1.72721 -1.79584 -1.85982 -1.91833 -1.97044 -2.01511 -2.05132 -2.07805 -2.09446 -2.1 -2.09446 -2.07805 -2.05132 -2.01511 -1.97044 -1.91833 -1.85982 -1.79584 -1.72721 -1.65464 -1.57873 -1.5 -1.41886 -1.33567 -1.25071 -1.16424 -1.07646 -0.987539 -0.89762 -0.806829 -0.715268 -0.623027 -0.530182 -0.436799 -0.342934 -0.248637 -0.15395 -0.0589118 0.0364453 0.132092 0.228002 0.324154 0.420526 0.517101 0.613862 0.710795 0.807887 0.905125 1.0025 1.1 1.19762 1.29535 1.39318 1.4911 1.58912 1.68722 1.78539 1.88365 1.98197 2.08035 1.98197 1.88365 1.78539 1.68722 1.58912 1.4911 1.39318 1.29535 1.19762 1.1 1.0025 0.905125 0.807887 0.710795 0.613862 0.517101 0.420526 0.324154 0.228002 0.132092 0.0364453 -0.0589118 -0.15395 -0.248637 -0.342934 -0.436799 -0.530182 -0.623027 -0.715268 -0.806829 -0.89762 -0.987539 -1.07646 -1.16424 -1.25071 -1.33567 -1.41886 -1.5 -1.57873 -1.65464 
-1.58579 -1.65464 -1.71938 -1.77934 -1.83381 -1.88197 -1.92297 -1.95597 -1.9802 -1.99501 -2 -1.99501 -1.9802 -1.95597 -1.92297 -1.88197 -1.83381 -1.77934 -1.71938 -1.65464 -1.58579 -1.51339 -1.43795 -1.35988 -1.27953 -1.19722 -1.1132 -1.02769 -0.940874 -0.852909 -0.763932 -0.674059 -0.583391 -0.492013 -0.4 -0.307418 -0.214322 -0.120764 -0.0267863 0.0675723 0.162278 0.257299 0.352611 0.448188 0.544009 0.640055 0.736308 0.832754 0.929377 1.02616 1.12311 1.22019 1.31741 1.41475 1.51221 1.60977 1.70744 1.80521 1.90306 2.001 2.09902 2.001 1.90306 1.80521 1.70744 1.60977 1.51221 1.41475 1.31741 1.22019 1.12311 1.02616 0.929377 0.832754 0.736308 0.640055 0.544009 0.448188 0.352611 0.257299 0.162278 0.0675723 -0.0267863 -0.120764 -0.214322 -0.307418 -0.4 -0.492013 -0.583391 -0.674059 -0.763932 -0.852909 -0.940874 -1.02769 -1.1132 -1.19722 -1.27953 -1.35988 -1.43795 -1.51339 -1.58579 
-1.51339 -1.57873 -1.63985 -1.69616 -1.747 -1.7917 -1.82953 -1.85982 -1.88197 -1.89546 -1.9 -1.89546 -1.88197 -1.85982 -1.82953 -1.7917 -1.747 -1.69616 -1.63985 -1.57873 -1.51339 -1.44437 -1.37212 -1.29706 -1.21955 -1.13989 -1.05835 -0.975154 -0.890498 -0.80455 -0.717458 -0.629346 -0.540325 -0.45049 -0.359924 -0.2687 -0.176881 -0.0845241 0.00832179 0.101612 0.195309 0.289377 0.383785 0.478505 0.573514 0.668787 0.764306 0.860052 0.956008 1.05216 1.14849 1.245 1.34166 1.43847 1.53542 1.63249 1.72969 1.82701 1.92443 2.02195 2.11957 2.02195 1.92443 1.82701 1.72969 1.63249 1.53542 1.43847 1.34166 1.245 1.14849 1.05216 0.956008 0.860052 0.764306 0.668787 0.573514 0.478505 0.383785 0.289377 0.195309 0.101612 0.00832179 -0.0845241 -0.176881 -0.2687 -0.359924 -0.45049 -0.540325 -0.629346 -0.717458 -0.80455 -0.890498 -0.975154 -1.05835 -1.13989 -1.21955 -1.29706 -1.37212 -1.44437 -1.51339 
-1.43795 -1.5 -1.55778 -1.61076 -1.65836 -1.7 -1.73509 -1.76307 -1.78345 -1.79584 -1.8 -1.79584 -1.78345 -1.76307 -1.73509 -1.7 -1.65836 -1.61076 -1.55778 -1.5 -1.43795 -1.37212 -1.30294 -1.23082 -1.15609 -1.07906 -1 -0.919135 -0.836669 -0.752779 -0.667619 -0.581323 -0.494007 -0.405776 -0.316718 -0.226915 -0.136436 -0.0453427 0.0463092 0.138471 0.231099 0.324154 0.417601 0.51141 0.605551 0.7 0.794733 0.88973 0.984972 1.08044 1.17612 1.272 1.36807 1.4643 1.5607 1.65725 1.75395 1.85077 1.94773 2.0448 2.14198 2.0448 1.94773 1.85077 1.75395 1.65725 1.5607 1.4643 1.36807 1.272 1.17612 1.08044 0.984972 0.88973 0.794733 0.7 0.605551 0.51141 0.417601 0.324154 0.231099 0.138471 0.0463092 -0.0453427 -0.136436 -0.226915 -0.316718 -0.405776 -0.494007 -0.581323 -0.667619 -0.752779 -0.836669 -0.919135 -1 -1.07906 -1.15609 -1.23082 -1.30294 -1.37212 -1.43795 
-1.35988 -1.41886 -1.47357 -1.52352 -1.56822 -1.60716 -1.63985 -1.66583 -1.68471 -1.69616 -1.7 -1.69616 -1.68471 -1.66583 -1.63985 -1.60716 -1.56822 -1.52352 -1.47357 -1.41886 -1.35988 -1.29706 -1.23082 -1.16152 -1.0895 -1.01506 -0.938447 -0.859907 -0.77964 -0.697827 -0.614628 -0.530182 -0.444614 -0.358031 -0.270531 -0.182199 -0.0931116 -0.00333519 0.0870698 0.17805 0.269557 0.361547 0.453983 0.54683 0.640055 0.733631 0.827532 0.921734 1.01622 1.11096 1.20595 1.30116 1.39659 1.49222 1.58803 1.68402 1.78017 1.87647 1.97293 2.06952 2.16624 2.06952 1.97293 1.87647 1.78017 1.68402 1.58803 1.49222 1.39659 1.30116 1.20595 1.11096 1.01622 0.921734 0.827532 0.733631 0.640055 0.54683 0.453983 0.361547 0.269557 0.17805 0.0870698 -0.00333519 -0.0931116 -0.182199 -0.270531 -0.358031 -0.444614 -0.530182 -0.614628 -0.697827 -0.77964 -0.859907 -0.938447 -1.01506 -1.0895 -1.16152 -1.23082 -1.29706 -1.35988 
-1.27953 -1.33567 -1.38755 -1.43475 -1.47685 -1.51339 -1.54398 -1.56822 -1.58579 -1.59643 -1.6 -1.59643 -1.58579 -1.56822 -1.54398 -1.51339 -1.47685 -1.43475 -1.38755 -1.33567 -1.27953 -1.21955 -1.15609 -1.0895 -1.0201 -0.948172 -0.873971 -0.797728 -0.719649 -0.639915 -0.558689 -0.476114 -0.392319 -0.307418 -0.221511 -0.13469 -0.0470354 0.0413813 0.130495 0.220248 0.310589 0.40147 0.49285 0.58469 0.676955 0.769615 0.862642 0.956008 1.04969 1.14367 1.23792 1.33244 1.42719 1.52217 1.61736 1.71275 1.80833 1.90408 2 2.09608 2.1923 2.09608 2 1.90408 1.80833 1.71275 1.61736 1.52217 1.42719 1.33244 1.23792 1.14367 1.04969 0.956008 0.862642 0.769615 0.676955 0.58469 0.49285 0.40147 0.310589 0.220248 0.130495 0.0413813 -0.0470354 -0.13469 -0.221511 -0.307418 -0.392319 -0.476114 -0.558689 -0.639915 -0.719649 -0.797728 -0.873971 -0.948172 -1.0201 -1.0895 -1.15609 -1.21955 -1.27953 
-1.19722 -1.25071 -1.3 -1.34471 -1.38445 -1.41886 -1.44758 -1.47029 -1.48673 -1.49667 -1.5 -1.49667 -1.48673 -1.47029 -1.44758 -1.41886 -1.38445 -1.34471 -1.3 -1.25071 -1.19722 -1.13989 -1.07906 -1.01506 -0.948172 -0.87868 -0.806829 -0.732843 -0.656925 -0.579256 -0.5 -0.419302 -0.337295 -0.254094 -0.169806 -0.0845241 0.0016662 0.088689 0.176476 0.264966 0.354102 0.443835 0.534119 0.624914 0.716181 0.807887 0.9 0.992493 1.08534 1.17852 1.272 1.36578 1.45982 1.55412 1.64866 1.74342 1.83839 1.93356 2.02892 2.12445 2.22015 2.12445 2.02892 1.93356 1.83839 1.74342 1.64866 1.55412 1.45982 1.36578 1.272 1.17852 1.08534 0.992493 0.9 0.807887 0.716181 0.624914 0.534119 0.443835 0.354102 0.264966 0.176476 0.088689 0.0016662 -0.0845241 -0.169806 -0.254094 -0.337295 -0.419302 -0.5 -0.579256 -0.656925 -0.732843 -0.806829 -0.87868 -0.948172 -1.01506 -1.07906 -1.13989 -1.19722 
-1.1132 -1.16424 -1.21115 -1.25358 -1.2912 -1.32369 -1.35076 -1.37212 -1.38755 -1.39688 -1.4 -1.39688 -1.38755 -1.37212 -1.35076 -1.32369 -1.2912 -1.25358 -1.21115 -1.16424 -1.1132 -1.05835 -1 -0.938447 -0.873971 -0.806829 -0.737258 -0.665476 -0.591681 -0.516052 -0.43875 -0.359924 -0.279706 -0.198215 -0.115559 -0.0318356 0.0528675 0.138471 0.224903 0.312099 0.4 0.488553 0.577709 0.667424 0.757659 0.848376 0.939543 1.03113 1.12311 1.21545 1.30813 1.40114 1.49444 1.58803 1.68188 1.77598 1.87032 1.96488 2.05964 2.15461 2.24976 2.15461 2.05964 1.96488 1.87032 1.77598 1.68188 1.58803 1.49444 1.40114 1.30813 1.21545 1.12311 1.03113 0.939543 0.848376 0.757659 0.667424 0.577709 0.488553 0.4 0.312099 0.224903 0.138471 0.0528675 -0.0318356 -0.115559 -0.198215 -0.279706 -0.359924 -0.43875 -0.516052 -0.591681 -0.665476 -0.737258 -0.806829 -0.873971 -0.938447 -1 -1.05835 -1.1132 
-1.02769 -1.07646 -1.12117 -1.16152 -1.19722 -1.228 -1.25358 -1.27373 -1.28828 -1.29706 -1.3 -1.29706 -1.28828 -1.27373 -1.25358 -1.228 -1.19722 -1.16152 -1.12117 -1.07646 -1.02769 -0.975154 -0.919135 -0.859907 -0.797728 -0.732843 -0.665476 -0.595837 -0.524116 -0.45049 -0.375119 -0.298149 -0.219712 -0.13993 -0.0589118 0.0232433 0.106445 0.190611 0.275668 0.361547 0.448188 0.535534 0.623534 0.712142 0.801316 0.891015 0.981206 1.07185 1.16293 1.25441 1.34626 1.43847 1.531 1.62385 1.71699 1.81041 1.90408 1.998 2.09215 2.18652 2.2811 2.18652 2.09215 1.998 1.90408 1.81041 1.71699 1.62385 1.531 1.43847 1.34626 1.25441 1.16293 1.07185 0.981206 0.891015 0.801316 0.712142 0.623534 0.535534 0.448188 0.361547 0.275668 0.190611 0.106445 0.0232433 -0.0589118 -0.13993 -0.219712 -0.298149 -0.375119 -0.45049 -0.524116 -0.595837 -0.665476 -0.732843 -0.797728 -0.859907 -0.919135 -0.975154 -1.02769 