# vtk DataFile Version 2.0
2D Surface
ASCII
DATASET RECTILINEAR_GRID
DIMENSIONS 31 31 1
X_COORDINATES 31 float
0
1
2
3
4
5
6
7
8
9
10
11
12
13
14
15
16
17
18
19
20
21
22
23
24
25
26
27
28
29
30
Y_COORDINATES 31 float
0
1
2
3
4
5
6
7
8
9
10
11
12
13
14
15
16
17
18
19
20
21
22
23
24
25
26
27
28
29
30
Z_COORDINATES 1 float
0
POINT_DATA 961
SCALARS SDValues float
LOOKUP_TABLE default
10.2132 9.51828 8.84943 8.20937 7.60108 7.02776 6.49286 6 5.55295 5.15549 4.81139 4.52417 4.29706 4.13275 4.0333 4 4.0333 4.13275 4.29706 4.52417 4.81139 5.15549 5.55295 6 6.49286 7.02776 7.60108 8.20937 8.84943 9.51828 10.2132 
9.51828 8.79899 8.10497 7.43909 6.80449 6.20465 5.64332 5.12452 4.65248 4.23155 3.86607 3.56022 3.31782 3.14214 3.03567 3 3.03567 3.14214 3.31782 3.56022 3.86607 4.23155 4.65248 5.12452 5.64332 6.20465 6.80449 7.43909 8.10497 8.79899 9.51828 
8.84943 8.10497 7.38478 6.69181 6.02939 5.40122 4.81139 4.26434 3.76482 3.31782 2.92839 2.60147 2.34166 2.15295 2.0384 2 2.0384 2.15295 2.34166 2.60147 2.92839 3.31782 3.76482 4.26434 4.81139 5.40122 6.02939 6.69181 7.38478 8.10497 8.84943 
8.20937 7.43909 6.69181 5.97056 5.27882 4.6205 4 3.42221 2.89244 2.41641 2 1.64911 1.36932 1.16553 1.04159 1 1.04159 1.16553 1.36932 1.64911 2 2.41641 2.89244 3.42221 4 4.6205 5.27882 5.97056 6.69181 7.43909 8.20937 
7.60108 6.80449 6.02939 5.27882 4.55635 3.86607 3.21267 2.60147 2.0384 1.52996 1.08305 0.7047 0.401754 0.18034 0.045361 0 0.045361 0.18034 0.401754 0.7047 1.08305 1.52996 2.0384 2.60147 3.21267 3.86607 4.55635 5.27882 6.02939 6.80449 7.60108 
7.02776 6.20465 5.40122 4.6205 3.86607 3.14214 2.45362 1.80625 1.20656 0.661904 0.18034 -0.22967 -0.559693 -0.801961 -0.950124 -1 -0.950124 -0.801961 -0.559693 -0.22967 0.18034 0.661904 1.20656 1.80625 2.45362 3.14214 3.86607 4.6205 5.40122 6.20465 7.02776 
6.49286 5.64332 4.81139 4 3.21267 2.45362 1.72792 1.04159 0.401754 -0.183346 -0.70437 -1.15114 -1.51317 -1.78046 -1.94461 -2 -1.94461 -1.78046 -1.51317 -1.15114 -0.70437 -0.183346 0.401754 1.04159 1.72792 2.45362 3.21267 4 4.81139 5.64332 6.49286 
6 5.12452 4.26434 3.42221 2.60147 1.80625 1.04159 0.313708 -0.369854 -1 -1.56602 -2.05573 -2.456 -2.75379 -2.93774 -3 -2.93774 -2.75379 -2.456 -2.05573 -1.56602 -1 -0.369854 0.313708 1.04159 1.80625 2.60147 3.42221 4.26434 5.12452 6 
5.55295 4.65248 3.76482 2.89244 2.0384 1.20656 0.401754 -0.369854 -1.10051 -1.78046 -2.39767 -2.93774 -3.38423 -3.71989 -3.92893 -4 -3.92893 -3.71989 -3.38423 -2.93774 -2.39767 -1.78046 -1.10051 -0.369854 0.401754 1.20656 2.0384 2.89244 3.76482 4.65248 5.55295 
5.15549 4.23155 3.31782 2.41641 1.52996 0.661904 -0.183346 -1 -1.78046 -2.51472 -3.18975 -3.7889 -4.2918 -4.67544 -4.91724 -5 -4.91724 -4.67544 -4.2918 -3.7889 -3.18975 -2.51472 -1.78046 -1 -0.183346 0.661904 1.52996 2.41641 3.31782 4.23155 5.15549 
4.81139 3.86607 2.92839 2 1.08305 0.18034 -0.70437 -1.56602 -2.39767 -3.18975 -3.92893 -4.59688 -5.16905 -5.61484 -5.90098 -6 -5.90098 -5.61484 -5.16905 -4.59688 -3.92893 -3.18975 -2.39767 -1.56602 -0.70437 0.18034 1.08305 2 2.92839 3.86607 4.81139 
4.52417 3.56022 2.60147 1.64911 0.7047 -0.22967 -1.15114 -2.05573 -2.93774 -3.7889 -4.59688 -5.34315 -6 -6.52786 -6.87689 -7 -6.87689 -6.52786 -6 -5.34315 -4.59688 -3.7889 -2.93774 -2.05573 -1.15114 -0.22967 0.7047 1.64911 2.60147 3.56022 4.52417 
4.29706 3.31782 2.34166 1.36932 0.401754 -0.559693 -1.51317 -2.456 -3.38423 -4.2918 -5.16905 -6 -6.75736 -7.39445 -7.83772 -8 -7.83772 -7.39445 -6.75736 -6 -5.16905 -4.2918 -3.38423 -2.456 -1.51317 -0.559693 0.401754 1.36932 2.34166 3.31782 4.29706 
4.13275 3.14214 2.15295 1.16553 0.18034 -0.801961 -1.78046 -2.75379 -3.71989 -4.67544 -5.61484 -6.52786 -7.39445 -8.17157 -8.76393 -9 -8.76393 -8.17157 -7.39445 -6.52786 -5.61484 -4.67544 -3.71989 -2.75379 -1.78046 -0.801961 0.18034 1.16553 2.15295 3.14214 4.13275 
4.0333 3.03567 2.0384 1.04159 0.045361 -0.950124 -1.94461 -2.93774 -3.92893 -4.91724 -5.90098 -6.87689 -7.83772 -8.76393 -9.58579 -10 -9.58579 -8.76393 -7.83772 -6.87689 -5.90098 -4.91724 -3.92893 -2.93774 -1.94461 -0.950124 0.045361 1.04159 2.0384 3.03567 4.0333 
4 3 2 1 0 -1 -2 -3 -4 -5 -6 -7 -8 -9 -10 -11 -10 -9 -8 -7 -6 -5 -4 -3 -2 -1 0 1 2 3 4 
4.0333 3.03567 2.0384 1.04159 0.045361 -0.950124 -1.94461 -2.93774 -3.92893 -4.91724 -5.90098 -6.87689 -7.83772 -8.76393 -9.58579 -10 -9.58579 -8.76393 -7.83772 -6.87689 -5.90098 -4.91724 -3.92893 -2.93774 -1.94461 -0.950124 0.045361 1.04159 2.0384 3.03567 4.0333 
4.13275 3.14214 2.15295 1.16553 0.18034 -0.801961 -1.78046 -2.75379 -3.71989 -4.67544 -5.61484 -6.52786 -7.39445 -8.17157 -8.76393 -9 -8.76393 -8.17157 -7.39445 -6.52786 -5.61484 -4.67544 -3.71989 -2.75379 -1.78046 -0.801961 0.18034 1.16553 2.15295 3.14214 4.13275 
4.29706 3.31782 2.34166 1.36932 0.401754 -0.559693 -1.51317 -2.456 -3.38423 -4.2918 -5.16905 -6 -6.75736 -7.39445 -7.83772 -8 -7.83772 -7.39445 -6.75736 -6 -5.16905 -4.2918 -3.38423 -2.456 -1.51317 -0.559693 0.401754 1.36932 2.34166 3.31782 4.29706 
4.52417 3.56022 2.60147 1.64911 0.7047 -0.22967 -1.15114 -2.05573 -2.93774 -3.7889 -4.59688 -5.34315 -6 -6.52786 -6.87689 -7 -6.87689 -6.52786 -6 -5.34315 -4.59688 -3.7889 -2.93774 -2.05573 -1.15114 -0.22967 0.7047 1.64911 2.60147 3.56022 4.52417 
4.81139 3.86607 2.92839 2 1.08305 0.18034 -0.70437 -1.56602 -2.39767 -3.18975 -3.92893 -4.59688 -5.16905 -5.61484 -5.90098 -6 -5.90098 -5.61484 -5.16905 -4.59688 -3.92893 -3.18975 -2.39767 -1.56602 -0.70437 0.18034 1.08305 2 2.92839 3.86607 4.81139 
5.15549 4.23155 3.31782 2.41641 1.52996 0.661904 -0.183346 -1 -1.78046 -2.51472 -3.18975 -3.7889 -4.2918 -4.67544 -4.91724 -5 -4.91724 -4.67544 -4.2918 -3.7889 -3.18975 -2.51472 -1.78046 -1 -0.183346 0.661904 1.52996 2.41641 3.31782 4.23155 5.15549 
5.55295 4.65248 3.76482 2.89244 2.0384 1.20656 0.401754 -0.369854 -1.10051 -1.78046 -2.39767 -2.93774 -3.38423 -3.71989 -3.92893 -4 -3.92893 -3.71989 -3.38423 -2.93774 -2.39767 -1.78046 -1.10051 -0.369854 0.401754 1.20656 2.0384 2.89244 3.76482 4.65248 5.55295 
6 5.12452 4.26434 3.42221 2.60147 1.80625 1.04159 0.313708 -0.369854 -1 -1.56602 -2.05573 -2.456 -2.75379 -2.93774 -3 -2.93774 -2.75379 -2.456 -2.05573 -1.56602 -1 -0.369854 0.313708 1.04159 1.80625 2.60147 3.42221 4.26434 5.12452 6 
6.49286 5.64332 4.81139 4 3.21267 2.45362 1.72792 1.04159 0.401754 -0.183346 -0.70437 -1.15114 -1.51317 -1.78046 -1.94461 -2 -1.94461 -1.78046 -1.51317 -1.15114 -0.70437 -0.183346 0.401754 1.04159 1.72792 2.45362 3.21267 4 4.81139 5.64332 6.49286 
7.02776 6.20465 5.40122 4.6205 3.86607 3.14214 2.45362 1.80625 1.20656 0.661904 0.18034 -0.22967 -0.559693 -0.801961 -0.950124 -1 -0.950124 -0.801961 -0.559693 -0.22967 0.18034 0.661904 1.20656 1.80625 2.45362 3.14214 3.86607 4.6205 5.40122 6.20465 7.02776 
7.60108 6.80449 6.02939 5.27882 4.55635 3.86607 3.21267 2.60147 2.0384 1.52996 1.08305 0.7047 0.401754 0.18034 0.045361 0 0.045361 0.18034 0.401754 0.7047 1.08305 1.52996 2.0384 2.60147 3.21267 3.86607 4.55635 5.27882 6.02939 6.80449 7.60108 
8.20937 7.43909 6.69181 5.97056 5.27882 4.6205 4 3.42221 2.89244 2.41641 2 1.64911 1.36932 1.16553 1.04159 1 1.04159 1.16553 1.36932 1.64911 2 2.41641 2.89244 3.42221 4 4.6205 5.27882 5.97056 6.69181 7.43909 8.20937 
8.84943 8.10497 7.38478 6.69181 6.02939 5.40122 4.81139 4.26434 3.76482 3.31782 2.92839 2.60147 2.34166 2.15295 2.0384 2 2.0384 2.15295 2.34166 2.60147 2.92839 3.31782 3.76482 4.26434 4.81139 5.40122 6.02939 6.69181 7.38478 8.10497 8.84943 
9.51828 8.79899 8.10497 7.43909 6.80449 6.20465 5.64332 5.12452 4.65248 4.23155 3.86607 3.56022 3.31782 3.14214 3.03567 3 3.03567 3.14214 3.31782 3.56022 3.86607 4.23155 4.65248 5.12452 5.64332 6.20465 6.80449 7.43909 8.10497 8.79899 9.51828 
10.2132 9.51828 8.84943 8.20937 7.60108 7.02776 6.49286 6 5.55295 5.15549 4.81139 4.52417 4.29706 4.13275 4.0333 4 4.0333 4.13275 4.29706 4.52417 4.81139 5.15549 5.55295 6 6.49286 7.02776 7.60108 8.20937 8.84943 9.51828 10.2132 
