# vtk DataFile Version 2.0
2D Surface
ASCII
DATASET RECTILINEAR_GRID
DIMENSIONS 41 41 1
X_COORDINATES 41 float
0
0.1
0.2
0.3
0.4
0.5
0.6
0.7
0.8
0.9
1
1.1
1.2
1.3
1.4
1.5
1.6
1.7
1.8
1.9
2
2.1
2.2
2.3
2.4
2.5
2.6
2.7
2.8
2.9
3
3.1
3.2
3.3
3.4
3.5
3.6
3.7
3.8
3.9
4
Y_COORDINATES 41 float
0
0.1
0.2
0.3
0.4
0.5
0.6
0.7
0.8
0.9
1
1.1
1.2
1.3
1.4
1.5
1.6
1.7
1.8
1.9
2
2.1
2.2
2.3
2.4
2.5
2.6
2.7
2.8
2.9
3
3.1
3.2
3.3
3.4
3.5
3.6
3.7
3.8
3.9
4
Z_COORDINATES 1 float
0
POINT_DATA 1681
SCALARS SDValues float
LOOKUP_TABLE default
1.82843 1.75862 1.69072 1.62488 1.56125 1.5 1.44131 1.38537 1.33238 1.28254 1.23607 1.19317 1.15407 1.11896 1.08806 1.06155 1.03961 1.02237 1.00998 1.0025 1 1.0025 1.00998 1.02237 1.03961 1.06155 1.08806 1.11896 1.15407 1.19317 1.23607 1.28254 1.33238 1.38537 1.44131 1.5 1.56125 1.62488 1.69072 1.75862 1.82843 
1.75862 1.68701 1.61725 1.54951 1.48395 1.42074 1.36008 1.30217 1.24722 1.19545 1.14709 1.10238 1.06155 1.02485 0.992486 0.964688 0.941649 0.923538 0.910497 0.90263 0.9 0.90263 0.910497 0.923538 0.941649 0.964688 0.992486 1.02485 1.06155 1.10238 1.14709 1.19545 1.24722 1.30217 1.36008 1.42074 1.48395 1.54951 1.61725 1.68701 1.75862 
1.69072 1.61725 1.54558 1.47588 1.40832 1.34307 1.28035 1.22036 1.16333 1.1095 1.05913 1.01246 0.969772 0.931321 0.897367 0.868154 0.843909 0.824829 0.811077 0.802776 0.8 0.802776 0.811077 0.824829 0.843909 0.868154 0.897367 0.931321 0.969772 1.01246 1.05913 1.1095 1.16333 1.22036 1.28035 1.34307 1.40832 1.47588 1.54558 1.61725 1.69072 
1.62488 1.54951 1.47588 1.40416 1.33452 1.26716 1.20227 1.14009 1.08087 1.02485 0.972308 0.923538 0.878829 0.838478 0.802776 0.772005 0.746425 0.726268 0.711724 0.702939 0.7 0.702939 0.711724 0.726268 0.746425 0.772005 0.802776 0.838478 0.878829 0.923538 0.972308 1.02485 1.08087 1.14009 1.20227 1.26716 1.33452 1.40416 1.47588 1.54951 1.62488 
1.56125 1.48395 1.40832 1.33452 1.26274 1.19317 1.12603 1.06155 1 0.941649 0.886796 0.835756 0.788854 0.746425 0.708801 0.676305 0.649242 0.627882 0.612452 0.603122 0.6 0.603122 0.612452 0.627882 0.649242 0.676305 0.708801 0.746425 0.788854 0.835756 0.886796 0.941649 1 1.06155 1.12603 1.19317 1.26274 1.33452 1.40832 1.48395 1.56125 
1.5 1.42074 1.34307 1.26716 1.19317 1.12132 1.05183 0.984943 0.920937 0.860108 0.802776 0.749286 0.7 0.655295 0.615549 0.581139 0.552417 0.529706 0.513275 0.50333 0.5 0.50333 0.513275 0.529706 0.552417 0.581139 0.615549 0.655295 0.7 0.749286 0.802776 0.860108 0.920937 0.984943 1.05183 1.12132 1.19317 1.26716 1.34307 1.42074 1.5 
1.44131 1.36008 1.28035 1.20227 1.12603 1.05183 0.979899 0.910497 0.843909 0.780449 0.720465 0.664332 0.612452 0.565248 0.523155 0.486607 0.456022 0.431782 0.414214 0.403567 0.4 0.403567 0.414214 0.431782 0.456022 0.486607 0.523155 0.565248 0.612452 0.664332 0.720465 0.780449 0.843909 0.910497 0.979899 1.05183 1.12603 1.20227 1.28035 1.36008 1.44131 
1.38537 1.30217 1.22036 1.14009 1.06155 0.984943 0.910497 0.838478 0.769181 0.702939 0.640122 0.581139 0.526434 0.476482 0.431782 0.392839 0.360147 0.334166 0.315295 0.30384 0.3 0.30384 0.315295 0.334166 0.360147 0.392839 0.431782 0.476482 0.526434 0.581139 0.640122 0.702939 0.769181 0.838478 0.910497 0.984943 1.06155 1.14009 1.22036 1.30217 1.38537 
1.33238 1.24722 1.16333 1.08087 1 0.920937 0.843909 0.769181 0.697056 0.627882 0.56205 0.5 0.442221 0.389244 0.341641 0.3 0.264911 0.236932 0.216553 0.204159 0.2 0.204159 0.216553 0.236932 0.264911 0.3 0.341641 0.389244 0.442221 0.5 0.56205 0.627882 0.697056 0.769181 0.843909 0.920937 1 1.08087 1.16333 1.24722 1.33238 
1.28254 1.19545 1.1095 1.02485 0.941649 0.860108 0.780449 0.702939 0.627882 0.555635 0.486607 0.421267 0.360147 0.30384 0.252996 0.208305 0.17047 0.140175 0.118034 0.104536 0.1 0.104536 0.118034 0.140175 0.17047 0.208305 0.252996 0.30384 0.360147 0.421267 0.486607 0.555635 0.627882 0.702939 0.780449 0.860108 0.941649 1.02485 1.1095 1.19545 1.28254 
1.23607 1.14709 1.05913 0.972308 0.886796 0.802776 0.720465 0.640122 0.56205 0.486607 0.414214 0.345362 0.280625 0.220656 0.16619 0.118034 0.077033 0.0440307 0.0198039 0.00498756 0 0.00498756 0.0198039 0.0440307 0.077033 0.118034 0.16619 0.220656 0.280625 0.345362 0.414214 0.486607 0.56205 0.640122 0.720465 0.802776 0.886796 0.972308 1.05913 1.14709 1.23607 
1.19317 1.10238 1.01246 0.923538 0.835756 0.749286 0.664332 0.581139 0.5 0.421267 0.345362 0.272792 0.204159 0.140175 0.0816654 0.029563 -0.0151142 -0.0513167 -0.0780456 -0.0944615 -0.1 -0.0944615 -0.0780456 -0.0513167 -0.0151142 0.029563 0.0816654 0.140175 0.204159 0.272792 0.345362 0.421267 0.5 0.581139 0.664332 0.749286 0.835756 0.923538 1.01246 1.10238 1.19317 
1.15407 1.06155 0.969772 0.878829 0.788854 0.7 0.612452 0.526434 0.442221 0.360147 0.280625 0.204159 0.131371 0.0630146 -2.22045e-16 -0.0566019 -0.105573 -0.1456 -0.175379 -0.193774 -0.2 -0.193774 -0.175379 -0.1456 -0.105573 -0.0566019 -1.11022e-16 0.0630146 0.131371 0.204159 0.280625 0.360147 0.442221 0.526434 0.612452 0.7 0.788854 0.878829 0.969772 1.06155 1.15407 
1.11896 1.02485 0.931321 0.838478 0.746425 0.655295 0.565248 0.476482 0.389244 0.30384 0.220656 0.140175 0.0630146 -0.0100505 -0.0780456 -0.139767 -0.193774 -0.238423 -0.271989 -0.292893 -0.3 -0.292893 -0.271989 -0.238423 -0.193774 -0.139767 -0.0780456 -0.0100505 0.0630146 0.140175 0.220656 0.30384 0.389244 0.476482 0.565248 0.655295 0.746425 0.838478 0.931321 1.02485 1.11896 
1.08806 0.992486 0.897367 0.802776 0.708801 0.615549 0.523155 0.431782 0.341641 0.252996 0.16619 0.0816654 -2.22045e-16 -0.0780456 -0.151472 -0.218975 -0.27889 -0.32918 -0.367544 -0.391724 -0.4 -0.391724 -0.367544 -0.32918 -0.27889 -0.218975 -0.151472 -0.0780456 0 0.0816654 0.16619 0.252996 0.341641 0.431782 0.523155 0.615549 0.708801 0.802776 0.897367 0.992486 1.08806 
1.06155 0.964688 0.868154 0.772005 0.676305 0.581139 0.486607 0.392839 0.3 0.208305 0.118034 0.029563 -0.0566019 -0.139767 -0.218975 -0.292893 -0.359688 -0.416905 -0.461484 -0.490098 -0.5 -0.490098 -0.461484 -0.416905 -0.359688 -0.292893 -0.218975 -0.139767 -0.0566019 0.029563 0.118034 0.208305 0.3 0.392839 0.486607 0.581139 0.676305 0.772005 0.868154 0.964688 1.06155 
1.03961 0.941649 0.843909 0.746425 0.649242 0.552417 0.456022 0.360147 0.264911 0.17047 0.077033 -0.0151142 -0.105573 -0.193774 -0.27889 -0.359688 -0.434315 -0.5 -0.552786 -0.587689 -0.6 -0.587689 -0.552786 -0.5 -0.434315 -0.359688 -0.27889 -0.193774 -0.105573 -0.0151142 0.077033 0.17047 0.264911 0.360147 0.456022 0.552417 0.649242 0.746425 0.843909 0.941649 1.03961 
1.02237 0.923538 0.824829 0.726268 0.627882 0.529706 0.431782 0.334166 0.236932 0.140175 0.0440307 -0.0513167 -0.1456 -0.238423 -0.32918 -0.416905 -0.5 -0.575736 -0.639445 -0.683772 -0.7 -0.683772 -0.639445 -0.575736 -0.5 -0.416905 -0.32918 -0.238423 -0.1456 -0.0513167 0.0440307 0.140175 0.236932 0.334166 0.431782 0.529706 0.627882 0.726268 0.824829 0.923538 1.02237 
1.00998 0.910497 0.811077 0.711724 0.612452 0.513275 0.414214 0.315295 0.216553 0.118034 0.0198039 -0.0780456 -0.175379 -0.271989 -0.367544 -0.461484 -0.552786 -0.639445 -0.717157 -0.776393 -0.8 -0.776393 -0.717157 -0.639445 -0.552786 -0.461484 -0.367544 -0.271989 -0.175379 -0.0780456 0.0198039 0.118034 0.216553 0.315295 0.414214 0.513275 0.612452 0.711724 0.811077 0.910497 1.00998 
1.0025 0.90263 0.802776 0.702939 0.603122 0.50333 0.403567 0.30384 0.204159 0.104536 0.00498756 -0.0944615 -0.193774 -0.292893 -0.391724 -0.490098 -0.587689 -0.683772 -0.776393 -0.858579 -0.9 -0.858579 -0.776393 -0.683772 -0.587689 -0.490098 -0.391724 -0.292893 -0.193774 -0.0944615 0.00498756 0.104536 0.204159 0.30384 0.403567 0.50333 0.603122 0.702939 0.802776 0.90263 1.0025 
1 0.9 0.8 0.7 0.6 0.5 0.4 0.3 0.2 0.1 0 -0.1 -0.2 -0.3 -0.4 -0.5 -0.6 -0.7 -0.8 -0.9 -1 -0.9 -0.8 -0.7 -0.6 -0.5 -0.4 -0.3 -0.2 -0.1 0 0.1 0.2 0.3 0.4 0.5 0.6 0.7 0.8 0.9 1 
1.0025 0.90263 0.802776 0.702939 0.603122 0.50333 0.403567 0.30384 0.204159 0.104536 0.00498756 -0.0944615 -0.193774 -0.292893 -0.391724 -0.490098 -0.587689 -0.683772 -0.776393 -0.858579 -0.9 -0.858579 -0.776393 -0.683772 -0.587689 -0.490098 -0.391724 -0.292893 -0.193774 -0.0944615 0.00498756 0.104536 0.204159 0.30384 0.403567 0.50333 0.603122 0.702939 0.802776 0.90263 1.0025 
1.00998 0.910497 0.811077 0.711724 0.612452 0.513275 0.414214 0.315295 0.216553 0.118034 0.0198039 -0.0780456 -0.175379 -0.271989 -0.367544 -0.461484 -0.552786 -0.639445 -0.717157 -0.776393 -0.8 -0.776393 -0.717157 -0.639445 -0.552786 -0.461484 -0.367544 -0.271989 -0.175379 -0.0780456 0.0198039 0.118034 0.216553 0.315295 0.414214 0.513275 0.612452 0.711724 0.811077 0.910497 1.00998 
1.02237 0.923538 0.824829 0.726268 0.627882 0.529706 0.431782 0.334166 0.236932 0.140175 0.0440307 -0.0513167 -0.1456 -0.238423 -0.32918 -0.416905 -0.5 -0.575736 -0.639445 -0.683772 -0.7 -0.683772 -0.639445 -0.575736 -0.5 -0.416905 -0.32918 -0.238423 -0.1456 -0.0513167 0.0440307 0.140175 0.236932 0.334166 0.431782 0.529706 0.627882 0.726268 0.824829 0.923538 1.02237 
1.03961 0.941649 0.843909 0.746425 0.649242 0.552417 0.456022 0.360147 0.264911 0.17047 0.077033 -0.0151142 -0.105573 -0.193774 -0.27889 -0.359688 -0.434315 -0.5 -0.552786 -0.587689 -0.6 -0.587689 -0.552786 -0.5 -0.434315 -0.359688 -0.27889 -0.193774 -0.105573 -0.0151142 0.077033 0.17047 0.264911 0.360147 0.456022 0.552417 0.649242 0.746425 0.843909 0.941649 1.03961 
1.06155 0.964688 0.868154 0.772005 0.676305 0.581139 0.486607 0.392839 0.3 0.208305 0.118034 0.029563 -0.0566019 -0.139767 -0.218975 -0.292893 -0.359688 -0.416905 -0.461484 -0.490098 -0.5 -0.490098 -0.461484 -0.416905 -0.359688 -0.292893 -0.218975 -0.139767 -0.0566019 0.029563 0.118034 0.208305 0.3 0.392839 0.486607 0.581139 0.676305 0.772005 0.868154 0.964688 1.06155 
1.08806 0.992486 0.897367 0.802776 0.708801 0.615549 0.523155 0.431782 0.341641 0.252996 0.16619 0.0816654 -1.11022e-16 -0.0780456 -0.151472 -0.218975 -0.27889 -0.32918 -0.367544 -0.391724 -0.4 -0.391724 -0.367544 -0.32918 -0.27889 -0.218975 -0.151472 -0.0780456 2.22045e-16 0.0816654 0.16619 0.252996 0.341641 0.431782 0.523155 0.615549 0.708801 0.802776 0.897367 0.992486 1.08806 
1.11896 1.02485 0.931321 0.838478 0.746425 0.655295 0.565248 0.476482 0.389244 0.30384 0.220656 0.140175 0.0630146 -0.0100505 -0.0780456 -0.139767 -0.193774 -0.238423 -0.271989 -0.292893 -0.3 -0.292893 -0.271989 -0.238423 -0.193774 -0.139767 -0.0780456 -0.0100505 0.0630146 0.140175 0.220656 0.30384 0.389244 0.476482 0.565248 0.655295 0.746425 0.838478 0.931321 1.02485 1.11896 
1.15407 1.06155 0.969772 0.878829 0.788854 0.7 0.612452 0.526434 0.442221 0.360147 0.280625 0.204159 0.131371 0.0630146 0 -0.0566019 -0.105573 -0.1456 -0.175379 -0.193774 -0.2 -0.193774 -0.175379 -0.1456 -0.105573 -0.0566019 2.22045e-16 0.0630146 0.131371 0.204159 0.280625 0.360147 0.442221 0.526434 0.612452 0.7 0.788854 0.878829 0.969772 1.06155 1.15407 
1.19317 1.10238 1.01246 0.923538 0.835756 0.749286 0.664332 0.581139 0.5 0.421267 0.345362 0.272792 0.204159 0.140175 0.0816654 0.029563 -0.0151142 -0.0513167 -0.0780456 -0.0944615 -0.1 -0.0944615 -0.0780456 -0.0513167 -0.0151142 0.029563 0.0816654 0.140175 0.204159 0.272792 0.345362 0.421267 0.5 0.581139 0.664332 0.749286 0.835756 0.923538 1.01246 1.10238 1.19317 
1.23607 1.14709 1.05913 0.972308 0.886796 0.802776 0.720465 0.640122 0.56205 0.486607 0.414214 0.345362 0.280625 0.220656 0.16619 0.118034 0.077033 0.0440307 0.0198039 0.00498756 0 0.00498756 0.0198039 0.0440307 0.077033 0.118034 0.16619 0.220656 0.280625 0.345362 0.414214 0.486607 0.56205 0.640122 0.720465 0.802776 0.886796 0.972308 1.05913 1.14709 1.23607 
1.28254 1.19545 1.1095 1.02485 0.941649 0.860108 0.780449 0.702939 0.627882 0.555635 0.486607 0.421267 0.360147 0.30384 0.252996 0.208305 0.17047 0.140175 0.118034 0.104536 0.1 0.104536 0.118034 0.140175 0.17047 0.208305 0.252996 0.30384 0.360147 0.421267 0.486607 0.555635 0.627882 0.702939 0.780449 0.860108 0.941649 1.02485 1.1095 1.19545 1.28254 
1.33238 1.24722 1.16333 1.08087 1 0.920937 0.843909 0.769181 0.697056 0.627882 0.56205 0.5 0.442221 0.389244 0.341641 0.3 0.264911 0.236932 0.216553 0.204159 0.2 0.204159 0.216553 0.236932 0.264911 0.3 0.341641 0.389244 0.442221 0.5 0.56205 0.627882 0.697056 0.769181 0.843909 0.920937 1 1.08087 1.16333 1.24722 1.33238 
1.38537 1.30217 1.22036 1.14009 1.06155 0.984943 0.910497 0.838478 0.769181 0.702939 0.640122 0.581139 0.526434 0.476482 0.431782 0.392839 0.360147 0.334166 0.315295 0.30384 0.3 0.30384 0.315295 0.334166 0.360147 0.392839 0.431782 0.476482 0.526434 0.581139 0.640122 0.702939 0.769181 0.838478 0.910497 0.984943 1.06155 1.14009 1.22036 1.30217 1.38537 
1.44131 1.36008 1.28035 1.20227 1.12603 1.05183 0.979899 0.910497 0.843909 0.780449 0.720465 0.664332 0.612452 0.565248 0.523155 0.486607 0.456022 0.431782 0.414214 0.403567 0.4 0.403567 0.414214 0.431782 0.456022 0.486607 0.523155 0.565248 0.612452 0.664332 0.720465 0.780449 0.843909 0.910497 0.979899 1.05183 1.12603 1.20227 1.28035 1.36008 1.44131 
1.5 1.42074 1.34307 1.26716 1.19317 1.12132 1.05183 0.984943 0.920937 0.860108 0.802776 0.749286 0.7 0.655295 0.615549 0.581139 0.552417 0.529706 0.513275 0.50333 0.5 0.50333 0.513275 0.529706 0.552417 0.581139 0.615549 0.655295 0.7 0.749286 0.802776 0.860108 0.920937 0.984943 1.05183 1.12132 1.19317 1.26716 1.34307 1.42074 1.5 
1.56125 1.48395 1.40832 1.33452 1.26274 1.19317 1.12603 1.06155 1 0.941649 0.886796 0.835756 0.788854 0.746425 0.708801 0.676305 0.649242 0.627882 0.612452 0.603122 0.6 0.603122 0.612452 0.627882 0.649242 0.676305 0.708801 0.746425 0.788854 0.835756 0.886796 0.941649 1 1.06155 1.12603 1.19317 1.26274 1.33452 1.40832 1.48395 1.56125 
1.62488 1.54951 1.47588 1.40416 1.33452 1.26716 1.20227 1.14009 1.08087 1.02485 0.972308 0.923538 0.878829 0.838478 0.802776 0.772005 0.746425 0.726268 0.711724 0.702939 0.7 0.702939 0.711724 0.726268 0.746425 0.772005 0.802776 0.838478 0.878829 0.923538 0.972308 1.02485 1.08087 1.14009 1.20227 1.26716 1.33452 1.40416 1.47588 1.54951 1.62488 
1.69072 1.61725 1.54558 1.47588 1.40832 1.34307 1.28035 1.22036 1.16333 1.1095 1.05913 1.01246 0.969772 0.931321 0.897367 0.868154 0.843909 0.824829 0.811077 0.802776 0.8 0.802776 0.811077 0.824829 0.843909 0.868154 0.897367 0.931321 0.969772 1.01246 1.05913 1.1095 1.16333 1.22036 1.28035 1.34307 1.40832 1.47588 1.54558 1.61725 1.69072 
1.75862 1.68701 1.61725 1.54951 1.48395 1.42074 1.36008 1.30217 1.24722 1.19545 1.14709 1.10238 1.06155 1.02485 0.992486 0.964688 0.941649 0.923538 0.910497 0.90263 0.9 0.90263 0.910497 0.923538 0.941649 0.964688 0.992486 1.02485 1.06155 1.10238 1.14709 1.19545 1.24722 1.30217 1.36008 1.42074 1.48395 1.54951 1.61725 1.68701 1.75862 
1.82843 1.75862 1.69072 1.62488 1.56125 1.5 1.44131 1.38537 1.33238 1.28254 1.23607 1.19317 1.15407 1.11896 1.08806 1.06155 1.03961 1.02237 1.00998 1.0025 1 1.0025 1.00998 1.02237 1.03961 1.06155 1.08806 1.11896 1.15407 1.19317 1.23607 1.28254 1.33238 1.38537 1.44131 1.5 1.56125 1.62488 1.69072 1.75862 1.82843 
