# vtk DataFile Version 2.0
2D Surface
ASCII
DATASET RECTILINEAR_GRID
DIMENSIONS 41 31 1
X_COORDINATES 41 float
0
0.1
0.2
0.3
0.4
0.5
0.6
0.7
0.8
0.9
1
1.1
1.2
1.3
1.4
1.5
1.6
1.7
1.8
1.9
2
2.1
2.2
2.3
2.4
2.5
2.6
2.7
2.8
2.9
3
3.1
3.2
3.3
3.4
3.5
3.6
3.7
3.8
3.9
4
Y_COORDINATES 31 float
0
0.1
0.2
0.3
0.4
0.5
0.6
0.7
0.8
0.9
1
1.1
1.2
1.3
1.4
1.5
1.6
1.7
1.8
1.9
2
2.1
2.2
2.3
2.4
2.5
2.6
2.7
2.8
2.9
3
Z_COORDINATES 1 float
0
POINT_DATA 1271
SCALARS SDValues float
LOOKUP_TABLE default
1.41421 1.34536 1.28062 1.22066 1.16619 1.11803 1.07703 1.04403 1.0198 1.00499 1 1 1 1 1 1 1 1 1 1 1 1 1 1 1 1 1 1 1 1 1 1.00499 1.0198 1.04403 1.07703 1.11803 1.16619 1.22066 1.28062 1.34536 1.41421 
1.34536 1.27279 1.20416 1.14018 1.08167 1.02956 0.984886 0.948683 0.921954 0.905539 0.9 0.9 0.9 0.9 0.9 0.9 0.9 0.9 0.9 0.9 0.9 0.9 0.9 0.9 0.9 0.9 0.9 0.9 0.9 0.9 0.9 0.905539 0.921954 0.948683 0.984886 1.02956 1.08167 1.14018 1.20416 1.27279 1.34536 
1.28062 1.20416 1.13137 1.06301 1 0.943398 0.894427 0.8544 0.824621 0.806226 0.8 0.8 0.8 0.8 0.8 0.8 0.8 0.8 0.8 0.8 0.8 0.8 0.8 0.8 0.8 0.8 0.8 0.8 0.8 0.8 0.8 0.806226 0.824621 0.8544 0.894427 0.943398 1 1.06301 1.13137 1.20416 1.28062 
1.22066 1.14018 1.06301 0.989949 0.921954 0.860233 0.806226 0.761577 0.728011 0.707107 0.7 0.7 0.7 0.7 0.7 0.7 0.7 0.7 0.7 0.7 0.7 0.7 0.7 0.7 0.7 0.7 0.7 0.7 0.7 0.7 0.7 0.707107 0.728011 0.761577 0.806226 0.860233 0.921954 0.989949 1.06301 1.14018 1.22066 
1.16619 1.08167 1 0.921954 0.848528 0.781025 0.72111 0.67082 0.632456 0.608276 0.6 0.6 0.6 0.6 0.6 0.6 0.6 0.6 0.6 0.6 0.6 0.6 0.6 0.6 0.6 0.6 0.6 0.6 0.6 0.6 0.6 0.608276 0.632456 0.67082 0.72111 0.781025 0.848528 0.921954 1 1.08167 1.16619 
1.11803 1.02956 0.943398 0.860233 0.781025 0.707107 0.640312 0.583095 0.538516 0.509902 0.5 0.5 0.5 0.5 0.5 0.5 0.5 0.5 0.5 0.5 0.5 0.5 0.5 0.5 0.5 0.5 0.5 0.5 0.5 0.5 0.5 0.509902 0.538516 0.583095 0.640312 0.707107 0.781025 0.860233 0.943398 1.02956 1.11803 
1.07703 0.984886 0.894427 0.806226 0.72111 0.640312 0.565685 0.5 0.447214 0.412311 0.4 0.4 0.4 0.4 0.4 0.4 0.4 0.4 0.4 0.4 0.4 0.4 0.4 0.4 0.4 0.4 0.4 0.4 0.4 0.4 0.4 0.412311 0.447214 0.5 0.565685 0.640312 0.72111 0.806226 0.894427 0.984886 1.07703 
1.04403 0.948683 0.8544 0.761577 0.67082 0.583095 0.5 0.424264 0.360555 0.316228 0.3 0.3 0.3 0.3 0.3 0.3 0.3 0.3 0.3 0.3 0.3 0.3 0.3 0.3 0.3 0.3 0.3 0.3 0.3 0.3 0.3 0.316228 0.360555 0.424264 0.5 0.583095 0.67082 0.761577 0.8544 0.948683 1.04403 
1.0198 0.921954 0.824621 0.728011 0.632456 0.538516 0.447214 0.360555 0.282843 0.223607 0.2 0.2 0.2 0.2 0.2 0.2 0.2 0.2 0.2 0.2 0.2 0.2 0.2 0.2 0.2 0.2 0.2 0.2 0.2 0.2 0.2 0.223607 0.282843 0.360555 0.447214 0.538516 0.632456 0.728011 0.824621 0.921954 1.0198 
1.00499 0.905539 0.806226 0.707107 0.608276 0.509902 0.412311 0.316228 0.223607 0.141421 0.1 0.1 0.1 0.1 0.1 0.1 0.1 0.1 0.1 0.1 0.1 0.1 0.1 0.1 0.1 0.1 0.1 0.1 0.1 0.1 0.1 0.141421 0.223607 0.316228 0.412311 0.509902 0.608276 0.707107 0.806226 0.905539 1.00499 
1 0.9 0.8 0.7 0.6 0.5 0.4 0.3 0.2 0.1 0 0 0 0 0 0 0 0 0 0 0 0 0 0 0 0 0 0 0 0 0 0.1 0.2 0.3 0.4 0.5 0.6 0.7 0.8 0.9 1 
1 0.9 0.8 0.7 0.6 0.5 0.4 0.3 0.2 0.1 0 -0.1 -0.1 -0.1 -0.1 -0.1 -0.1 -0.1 -0.1 -0.1 -0.1 -0.1 -0.1 -0.1 -0.1 -0.1 -0.1 -0.1 -0.1 -0.1 0 0.1 0.2 0.3 0.4 0.5 0.6 0.7 0.8 0.9 1 
1 0.9 0.8 0.7 0.6 0.5 0.4 0.3 0.2 0.1 0 -0.1 -0.2 -0.2 -0.2 -0.2 -0.2 -0.2 -0.2 -0.2 -0.2 -0.2 -0.2 -0.2 -0.2 -0.2 -0.2 -0.2 -0.2 -0.1 0 0.1 0.2 0.3 0.4 0.5 0.6 0.7 0.8 0.9 1 
1 0.9 0.8 0.7 0.6 0.5 0.4 0.3 0.2 0.1 0 -0.1 -0.2 -0.3 -0.3 -0.3 -0.3 -0.3 -0.3 -0.3 -0.3 -0.3 -0.3 -0.3 -0.3 -0.3 -0.3 -0.3 -0.2 -0.1 0 0.1 0.2 0.3 0.4 0.5 0.6 0.7 0.8 0.9 1 
1 0.9 0.8 0.7 0.6 0.5 0.4 0.3 0.2 0.1 0 -0.1 -0.2 -0.3 -0.4 -0.4 -0.4 -0.4 -0.4 -0.4 -0.4 -0.4 -0.4 -0.4 -0.4 -0.4 -0.4 -0.3 -0.2 -0.1 0 0.1 0.2 0.3 0.4 0.5 0.6 0.7 0.8 0.9 1 
1 0.9 0.8 0.7 0.6 0.5 0.4 0.3 0.2 0.1 0 -0.1 -0.2 -0.3 -0.4 -0.5 -0.5 -0.5 -0.5 -0.5 -0.5 -0.5 -0.5 -0.5 -0.5 -0.5 -0.4 -0.3 -0.2 -0.1 0 0.1 0.2 0.3 0.4 0.5 0.6 0.7 0.8 0.9 1 
1 0.9 0.8 0.7 0.6 0.5 0.4 0.3 0.2 0.1 0 -0.1 -0.2 -0.3 -0.4 -0.4 -0.4 -0.4 -0.4 -0.4 -0.4 -0.4 -0.4 -0.4 -0.4 -0.4 -0.4 -0.3 -0.2 -0.1 0 0.1 0.2 0.3 0.4 0.5 0.6 0.7 0.8 0.9 1 
1 0.9 0.8 0.7 0.6 0.5 0.4 0.3 0.2 0.1 0 -0.1 -0.2 -0.3 -0.3 -0.3 -0.3 -0.3 -0.3 -0.3 -0.3 -0.3 -0.3 -0.3 -0.3 -0.3 -0.3 -0.3 -0.2 -0.1 0 0.1 0.2 0.3 0.4 0.5 0.6 0.7 0.8 0.9 1 
1 0.9 0.8 0.7 0.6 0.5 0.4 0.3 0.2 0.1 0 -0.1 -0.2 -0.2 -0.2 -0.2 -0.2 -0.2 -0.2 -0.2 -0.2 -0.2 -0.2 -0.2 -0.2 -0.2 -0.2 -0.2 -0.2 -0.1 0 0.1 0.2 0.3 0.4 0.5 0.6 0.7 0.8 0.9 1 
1 0.9 0.8 0.7 0.6 0.5 0.4 0.3 0.2 0.1 0 -0.1 -0.1 -0.1 -0.1 -0.1 -0.1 -0.1 -0.1 -0.1 -0.1 -0.1 -0.1 -0.1 -0.1 -0.1 -0.1 -0.1 -0.1 -0.1 0 0.1 0.2 0.3 0.4 0.5 0.6 0.7 0.8 0.9 1 
1 0.9 0.8 0.7 0.6 0.5 0.4 0.3 0.2 0.1 0 0 0 0 0 0 0 0 0 0 0 0 0 0 0 0 0 0 0 0 0 0.1 0.2 0.3 0.4 0.5 0.6 0.7 0.8 0.9 1 
1.00499 0.905539 0.806226 0.707107 0.608276 0.509902 0.412311 0.316228 0.223607 0.141421 0.1 0.1 0.1 0.1 0.1 0.1 0.1 0.1 0.1 0.1 0.1 0.1 0.1 0.1 0.1 0.1 0.1 0.1 0.1 0.1 0.1 0.141421 0.223607 0.316228 0.412311 0.509902 0.608276 0.707107 0.806226 0.905539 1.00499 
1.0198 0.921954 0.824621 0.728011 0.632456 0.538516 0.447214 0.360555 0.282843 0.223607 0.2 0.2 0.2 0.2 0.2 0.2 0.2 0.2 0.2 0.2 0.2 0.2 0.2 0.2 0.2 0.2 0.2 0.2 0.2 0.2 0.2 0.223607 0.282843 0.360555 0.447214 0.538516 0.632456 0.728011 0.824621 0.921954 1.0198 
1.04403 0.948683 0.8544 0.761577 0.67082 0.583095 0.5 0.424264 0.360555 0.316228 0.3 0.3 0.3 0.3 0.3 0.3 0.3 0.3 0.3 0.3 0.3 0.3 0.3 0.3 0.3 0.3 0.3 0.3 0.3 0.3 0.3 0.316228 0.360555 0.424264 0.5 0.583095 0.67082 0.761577 0.8544 0.948683 1.04403 
1.07703 0.984886 0.894427 0.806226 0.72111 0.640312 0.565685 0.5 0.447214 0.412311 0.4 0.4 0.4 0.4 0.4 0.4 0.4 0.4 0.4 0.4 0.4 0.4 0.4 0.4 0.4 0.4 0.4 0.4 0.4 0.4 0.4 0.412311 0.447214 0.5 0.565685 0.640312 0.72111 0.806226 0.894427 0.984886 1.07703 
1.11803 1.02956 0.943398 0.860233 0.781025 0.707107 0.640312 0.583095 0.538516 0.509902 0.5 0.5 0.5 0.5 0.5 0.5 0.5 0.5 0.5 0.5 0.5 0.5 0.5 0.5 0.5 0.5 0.5 0.5 0.5 0.5 0.5 0.509902 0.538516 0.583095 0.640312 0.707107 0.781025 0.860233 0.943398 1.02956 1.11803 
1.16619 1.08167 1 0.921954 0.848528 0.781025 0.72111 0.67082 0.632456 0.608276 0.6 0.6 0.6 0.6 0.6 0.6 0.6 0.6 0.6 0.6 0.6 0.6 0.6 0.6 0.6 0.6 0.6 0.6 0.6 0.6 0.6 0.608276 0.632456 0.67082 0.72111 0.781025 0.848528 0.921954 1 1.08167 1.16619 
1.22066 1.14018 1.06301 0.989949 0.921954 0.860233 0.806226 0.761577 0.728011 0.707107 0.7 0.7 0.7 0.7 0.7 0.7 0.7 0.7 0.7 0.7 0.7 0.7 0.7 0.7 0.7 0.7 0.7 0.7 0.7 0.7 0.7 0.707107 0.728011 0.761577 0.806226 0.860233 0.921954 0.989949 1.06301 1.14018 1.22066 
1.28062 1.20416 1.13137 1.06301 1 0.943398 0.894427 0.8544 0.824621 0.806226 0.8 0.8 0.8 0.8 0.8 0.8 0.8 0.8 0.8 0.8 0.8 0.8 0.8 0.8 0.8 0.8 0.8 0.8 0.8 0.8 0.8 0.806226 0.824621 0.8544 0.894427 0.943398 1 1.06301 1.13137 1.20416 1.28062 
1.34536 1.27279 1.20416 1.14018 1.08167 1.02956 0.984886 0.948683 0.921954 0.905539 0.9 0.9 0.9 0.9 0.9 0.9 0.9 0.9 0.9 0.9 0.9 0.9 0.9 0.9 0.9 0.9 0.9 0.9 0.9 0.9 0.9 0.905539 0.921954 0.948683 0.984886 1.02956 1.08167 1.14018 1.20416 1.27279 1.34536 
1.41421 1.34536 1.28062 1.22066 1.16619 1.11803 1.07703 1.04403 1.0198 1.00499 1 1 1 1 1 1 1 1 1 1 1 1 1 1 1 1 1 1 1 1 1 1.00499 1.0198 1.04403 1.07703 1.11803 1.16619 1.22066 1.28062 1.34536 1.41421 
